
                                 *****************
                                 * O   R   C   A *
                                 *****************

                                            #,                                       
                                            ###                                      
                                            ####                                     
                                            #####                                    
                                            ######                                   
                                           ########,                                 
                                     ,,################,,,,,                         
                               ,,#################################,,                 
                          ,,##########################################,,             
                       ,#########################################, ''#####,          
                    ,#############################################,,   '####,        
                  ,##################################################,,,,####,       
                ,###########''''           ''''###############################       
              ,#####''   ,,,,##########,,,,          '''####'''          '####       
            ,##' ,,,,###########################,,,                        '##       
           ' ,,###''''                  '''############,,,                           
         ,,##''                                '''############,,,,        ,,,,,,###''
      ,#''                                            '''#######################'''  
     '                                                          ''''####''''         
             ,#######,   #######,   ,#######,      ##                                
            ,#'     '#,  ##    ##  ,#'     '#,    #''#        ######   ,####,        
            ##       ##  ##   ,#'  ##            #'  '#       #        #'  '#        
            ##       ##  #######   ##           ,######,      #####,   #    #        
            '#,     ,#'  ##    ##  '#,     ,#' ,#      #,         ##   #,  ,#        
             '#######'   ##     ##  '#######'  #'      '#     #####' # '####'        



                  #######################################################
                  #                        -***-                        #
                  #          Department of theory and spectroscopy      #
                  #    Directorship and core code : Frank Neese         #
                  #        Max Planck Institute fuer Kohlenforschung    #
                  #                Kaiser Wilhelm Platz 1               #
                  #                 D-45470 Muelheim/Ruhr               #
                  #                      Germany                        #
                  #                                                     #
                  #                  All rights reserved                #
                  #                        -***-                        #
                  #######################################################


                         Program Version 5.0.4 -  RELEASE  -


 With contributions from (in alphabetic order):
   Daniel Aravena         : Magnetic Suceptibility
   Michael Atanasov       : Ab Initio Ligand Field Theory (pilot matlab implementation)
   Alexander A. Auer      : GIAO ZORA, VPT2 properties, NMR spectrum
   Ute Becker             : Parallelization
   Giovanni Bistoni       : ED, misc. LED, open-shell LED, HFLD
   Martin Brehm           : Molecular dynamics
   Dmytro Bykov           : SCF Hessian
   Vijay G. Chilkuri      : MRCI spin determinant printing, contributions to CSF-ICE
   Dipayan Datta          : RHF DLPNO-CCSD density
   Achintya Kumar Dutta   : EOM-CC, STEOM-CC
   Dmitry Ganyushin       : Spin-Orbit,Spin-Spin,Magnetic field MRCI
   Miquel Garcia          : C-PCM and meta-GGA Hessian, CC/C-PCM, Gaussian charge scheme
   Yang Guo               : DLPNO-NEVPT2, F12-NEVPT2, CIM, IAO-localization
   Andreas Hansen         : Spin unrestricted coupled pair/coupled cluster methods
   Benjamin Helmich-Paris : MC-RPA, TRAH-SCF, COSX integrals
   Lee Huntington         : MR-EOM, pCC
   Robert Izsak           : Overlap fitted RIJCOSX, COSX-SCS-MP3, EOM
   Marcus Kettner         : VPT2
   Christian Kollmar      : KDIIS, OOCD, Brueckner-CCSD(T), CCSD density, CASPT2, CASPT2-K
   Simone Kossmann        : Meta GGA functionals, TD-DFT gradient, OOMP2, MP2 Hessian
   Martin Krupicka        : Initial AUTO-CI
   Lucas Lang             : DCDCAS
   Marvin Lechner         : AUTO-CI (C++ implementation), FIC-MRCC
   Dagmar Lenk            : GEPOL surface, SMD
   Dimitrios Liakos       : Extrapolation schemes; Compound Job, initial MDCI parallelization
   Dimitrios Manganas     : Further ROCIS development; embedding schemes
   Dimitrios Pantazis     : SARC Basis sets
   Anastasios Papadopoulos: AUTO-CI, single reference methods and gradients
   Taras Petrenko         : DFT Hessian,TD-DFT gradient, ASA, ECA, R-Raman, ABS, FL, XAS/XES, NRVS
   Peter Pinski           : DLPNO-MP2, DLPNO-MP2 Gradient
   Christoph Reimann      : Effective Core Potentials
   Marius Retegan         : Local ZFS, SOC
   Christoph Riplinger    : Optimizer, TS searches, QM/MM, DLPNO-CCSD(T), (RO)-DLPNO pert. Triples
   Tobias Risthaus        : Range-separated hybrids, TD-DFT gradient, RPA, STAB
   Michael Roemelt        : Original ROCIS implementation
   Masaaki Saitow         : Open-shell DLPNO-CCSD energy and density
   Barbara Sandhoefer     : DKH picture change effects
   Avijit Sen             : IP-ROCIS
   Kantharuban Sivalingam : CASSCF convergence, NEVPT2, FIC-MRCI
   Bernardo de Souza      : ESD, SOC TD-DFT
   Georgi Stoychev        : AutoAux, RI-MP2 NMR, DLPNO-MP2 response
   Willem Van den Heuvel  : Paramagnetic NMR
   Boris Wezisla          : Elementary symmetry handling
   Frank Wennmohs         : Technical directorship


 We gratefully acknowledge several colleagues who have allowed us to
 interface, adapt or use parts of their codes:
   Stefan Grimme, W. Hujo, H. Kruse, P. Pracht,  : VdW corrections, initial TS optimization,
                  C. Bannwarth, S. Ehlert          DFT functionals, gCP, sTDA/sTD-DF
   Ed Valeev, F. Pavosevic, A. Kumar             : LibInt (2-el integral package), F12 methods
   Garnet Chan, S. Sharma, J. Yang, R. Olivares  : DMRG
   Ulf Ekstrom                                   : XCFun DFT Library
   Mihaly Kallay                                 : mrcc  (arbitrary order and MRCC methods)
   Jiri Pittner, Ondrej Demel                    : Mk-CCSD
   Frank Weinhold                                : gennbo (NPA and NBO analysis)
   Christopher J. Cramer and Donald G. Truhlar   : smd solvation model
   Lars Goerigk                                  : TD-DFT with DH, B97 family of functionals
   V. Asgeirsson, H. Jonsson                     : NEB implementation
   FAccTs GmbH                                   : IRC, NEB, NEB-TS, DLPNO-Multilevel, CI-OPT
                                                   MM, QMMM, 2- and 3-layer-ONIOM, Crystal-QMMM,
                                                   LR-CPCM, SF, NACMEs, symmetry and pop. for TD-DFT,
                                                   nearIR, NL-DFT gradient (VV10), updates on ESD,
                                                   ML-optimized integration grids
   S Lehtola, MJT Oliveira, MAL Marques          : LibXC Library
   Liviu Ungur et al                             : ANISO software


 Your calculation uses the libint2 library for the computation of 2-el integrals
 For citations please refer to: http://libint.valeyev.net

 Your ORCA version has been built with support for libXC version: 5.1.0
 For citations please refer to: https://tddft.org/programs/libxc/

 This ORCA versions uses:
   CBLAS   interface :  Fast vector & matrix operations
   LAPACKE interface :  Fast linear algebra routines
   SCALAPACK package :  Parallel linear algebra routines
   Shared memory     :  Shared parallel matrices
   BLAS/LAPACK       :  OpenBLAS 0.3.15  USE64BITINT DYNAMIC_ARCH NO_AFFINITY Haswell SINGLE_THREADED
        Core in use  :  Haswell
   Copyright (c) 2011-2014, The OpenBLAS Project


Your calculation utilizes the atom-pairwise dispersion correction
with the Becke-Johnson damping scheme (D3BJ)
Cite in your paper:
S.Grimme, S.Ehrlich, L.Goerigk, J Comput Chem, (2011), 32, 1456–1465 
S.Grimme, J.Antony, S.Ehrlich and H.Krieg, J.Chem.Phys., 132, (2010), 154104 
   

================================================================================

----- Orbital basis set information -----
Your calculation utilizes the basis: def2-TZVP
   F. Weigend and R. Ahlrichs, Phys. Chem. Chem. Phys. 7, 3297 (2005).

----- AuxJ basis set information -----
Your calculation utilizes the auxiliary basis: def2/J
   F. Weigend, Phys. Chem. Chem. Phys. 8, 1057 (2006).

================================================================================
                                        WARNINGS
                       Please study these warnings very carefully!
================================================================================


WARNING: Geometry Optimization
  ===> : Switching off AutoStart
         For restart on a previous wavefunction, please use MOREAD

INFO   : the flag for use of the SHARK integral package has been found!

================================================================================
                                       INPUT FILE
================================================================================
NAME = TS2_N3/TS2_N3.inp
|  1> %pal nprocs 24 end
|  2> ! PBE0 D3BJ def2-TZVP TightSCF OPTTS FREQ TightOpt
|  3> ! CPCM(dmso)
|  4> %scf
|  5> MaxIter 800
|  6> end
|  7> 
|  8> %geom
|  9> MaxIter 800
| 10> MaxStep 0.15
| 11> end
| 12> 
| 13> *xyz 0 1
| 14> C      -4.31716300      1.06849800      0.40026000
| 15> C      -3.84001200      0.72937200     -0.86484700
| 16> C      -2.47066900      0.78630000     -1.09533300
| 17> N      -1.61789700      1.14839400     -0.13810900
| 18> C      -2.05704400      1.47059800      1.07806200
| 19> C      -3.41190300      1.45134600      1.38789300
| 20> C       0.32782200      1.03440800     -0.62910100
| 21> C       0.62005800      2.36268100     -0.01187600
| 22> O       0.99370600      2.49632400      1.13063800
| 23> O       0.38589800      3.35510600     -0.85248200
| 24> C       0.63683300      4.66980800     -0.36653200
| 25> H      -5.38789500      1.03363100      0.61471000
| 26> H      -2.04232500      0.52574100     -2.06798400
| 27> H      -1.30109700      1.75058500      1.81769700
| 28> H      -3.74323300      1.72531200      2.39086500
| 29> H       0.00407300      0.99376800     -1.66519700
| 30> H       0.37966300      5.35098400     -1.18476700
| 31> H       1.69613700      4.78417300     -0.09560000
| 32> C       2.06587500     -0.42667100      0.24634800
| 33> C       0.58791400     -0.23251800      0.17048700
| 34> C      -0.13358500     -1.42536500     -0.42322300
| 35> C       0.22187400     -1.90770500     -1.68180000
| 36> C      -0.45851600     -2.97491300     -2.26720000
| 37> C      -1.51152200     -3.56856600     -1.57407600
| 38> C      -1.88230700     -3.10825200     -0.31058200
| 39> C      -1.19428900     -2.03695800      0.27279700
| 40> O      -1.49120000     -1.52770600      1.48448100
| 41> C      -2.61330300     -2.01380200      2.18273700
| 42> N       2.80216800      0.29518600     -0.56703300
| 43> O       4.04577700      0.24420800     -0.65014200
| 44> H       0.21856300     -0.07247000      1.19306600
| 45> H       1.04706100     -1.42565100     -2.21471000
| 46> H      -0.16885600     -3.33775300     -3.25565200
| 47> H      -2.05847700     -4.40527500     -2.01612700
| 48> H      -2.70815100     -3.58697000      0.21646700
| 49> H      -2.49372400     -3.07631200      2.45163500
| 50> H      -3.53640600     -1.88990800      1.59282900
| 51> H      -2.69089500     -1.41588500      3.09894000
| 52> O       2.13521500      1.13626400     -1.34134900
| 53> H       0.01344900      4.88029800      0.51419700
| 54> H      -4.51364000      0.42133100     -1.66614700
| 55> N       2.58269000     -1.35338400      1.12533900
| 56> N       3.77349100     -1.62968700      1.19372300
| 57> N       4.81983100     -2.01191900      1.40453800
| 58> *
| 59> 
| 60>                          ****END OF INPUT****
================================================================================

                       *****************************
                       * Geometry Optimization Run *
                       *****************************

Geometry optimization settings:
Update method            Update   .... Bofill
Choice of coordinates    CoordSys .... Z-matrix Internals
Initial Hessian          InHess   .... Almoef's Model

Convergence Tolerances:
Energy Change            TolE     ....  1.0000e-06 Eh
Max. Gradient            TolMAXG  ....  1.0000e-04 Eh/bohr
RMS Gradient             TolRMSG  ....  3.0000e-05 Eh/bohr
Max. Displacement        TolMAXD  ....  1.0000e-03 bohr
RMS Displacement         TolRMSD  ....  6.0000e-04 bohr
Strict Convergence                ....  False
------------------------------------------------------------------------------
                        ORCA OPTIMIZATION COORDINATE SETUP
------------------------------------------------------------------------------

The optimization will be done in new redundant internal coordinates
Making redundant internal coordinates   ...  (new redundants) done
Following TS mode number                ...     0
Evaluating the initial hessian          ...  (Almloef) done
Evaluating the coordinates              ...  done
Calculating the B-matrix                .... done
Calculating the G-matrix                .... done
Diagonalizing the G-matrix              .... done
Small eigenvalue found = 4.841e-03
Small eigenvalue found = 1.128e-02
Small eigenvalue found = 1.526e-02
Small eigenvalue found = 2.216e-02
Small eigenvalue found = 2.588e-02
The first mode is                       ....  142
The number of degrees of freedom        ....  126

    -----------------------------------------------------------------
                    Redundant Internal Coordinates


    -----------------------------------------------------------------
         Definition                    Initial Value    Approx d2E/dq
    -----------------------------------------------------------------
      1. B(C   1,C   0)                  1.3940         0.615732   
      2. B(C   2,C   1)                  1.3898         0.625321   
      3. B(N   3,C   2)                  1.3321         0.692117   
      4. B(C   4,N   3)                  1.3326         0.691042   
      5. B(C   5,C   0)                  1.3934         0.617103   
      6. B(C   5,C   4)                  1.3900         0.624872   
      7. B(C   6,N   3)                  2.0099         0.057384   
      8. B(C   7,C   6)                  1.4935         0.427109   
      9. B(C   7,N   3)                  2.5493         0.007912   
     10. B(O   8,C   7)                  1.2095         1.086185   
     11. B(O   9,C   7)                  1.3215         0.719724   
     12. B(C  10,O   9)                  1.4239         0.494030   
     13. B(H  11,C   0)                  1.0926         0.356739   
     14. B(H  12,C   2)                  1.0943         0.354500   
     15. B(H  13,C   4)                  1.0940         0.354804   
     16. B(H  13,O   8)                  2.5088         0.001757   
     17. B(H  14,C   5)                  1.0912         0.358472   
     18. B(H  15,C   6)                  1.0863         0.365082   
     19. B(H  15,H  12)                  2.1375         0.001470   
     20. B(H  15,C   2)                  2.5480         0.001700   
     21. B(H  15,N   3)                  2.2331         0.004840   
     22. B(H  16,C  10)                  1.0953         0.353178   
     23. B(H  17,C  10)                  1.0994         0.347919   
     24. B(C  19,C  18)                  1.4926         0.428614   
     25. B(C  19,C   6)                  1.5206         0.386763   
     26. B(C  20,C  19)                  1.5152         0.394398   
     27. B(C  21,C  20)                  1.3939         0.615859   
     28. B(C  22,C  21)                  1.3945         0.614612   
     29. B(C  23,C  22)                  1.3934         0.616957   
     30. B(C  24,C  23)                  1.3949         0.613617   
     31. B(C  25,C  24)                  1.4005         0.601178   
     32. B(C  25,C  20)                  1.4084         0.583965   
     33. B(O  26,C  25)                  1.3475         0.654232   
     34. B(C  27,O  26)                  1.4082         0.523448   
     35. B(N  28,C  18)                  1.3133         0.741691   
     36. B(O  29,N  28)                  1.2474         0.846217   
     37. B(H  30,C  19)                  1.0990         0.348446   
     38. B(H  30,H  13)                  2.4542         0.000459   
     39. B(H  30,N   3)                  2.5759         0.001374   
     40. B(H  31,C  21)                  1.0942         0.354569   
     41. B(H  32,C  22)                  1.0921         0.357386   
     42. B(H  33,C  23)                  1.0930         0.356152   
     43. B(H  34,C  24)                  1.0904         0.359573   
     44. B(H  35,C  27)                  1.1025         0.343923   
     45. B(H  36,H  11)                  3.5961         0.000007   
     46. B(H  36,C  27)                  1.1025         0.343964   
     47. B(H  37,C  27)                  1.0968         0.351226   
     48. B(O  38,N  28)                  1.3236         0.639761   
     49. B(O  38,C   6)                  1.9453         0.072756   
     50. B(H  39,C  10)                  1.0994         0.347926   
     51. B(H  40,C   1)                  1.0912         0.358499   
     52. B(N  41,C  18)                  1.3779         0.585102   
     53. B(N  42,N  41)                  1.2243         0.921086   
     54. B(N  43,N  42)                  1.1337         1.284858   
     55. A(C   5,C   0,H  11)          120.4214         0.352070   
     56. A(C   1,C   0,C   5)          119.1920         0.433162   
     57. A(C   1,C   0,H  11)          120.3866         0.351938   
     58. A(C   0,C   1,H  40)          121.5878         0.352231   
     59. A(C   0,C   1,C   2)          118.5425         0.434194   
     60. A(C   2,C   1,H  40)          119.8695         0.353153   
     61. A(C   1,C   2,H  12)          121.5572         0.352483   
     62. A(N   3,C   2,H  12)          116.9259         0.356388   
     63. A(C   1,C   2,N   3)          121.5139         0.440536   
     64. A(C   4,N   3,C   6)          123.7572         0.291977   
     65. A(C   2,N   3,C   4)          120.7008         0.445619   
     66. A(C   2,N   3,C   7)          136.6374         0.218670   
     67. A(C   6,N   3,C   7)           35.8344         0.162804   
     68. A(C   2,N   3,C   6)          115.3882         0.292048   
     69. A(C   4,N   3,C   7)           97.4083         0.218624   
     70. A(N   3,C   4,C   5)          121.4203         0.440355   
     71. A(N   3,C   4,H  13)          116.8194         0.356345   
     72. A(C   5,C   4,H  13)          121.7603         0.352492   
     73. A(C   0,C   5,C   4)          118.6259         0.434312   
     74. A(C   0,C   5,H  14)          121.5468         0.352359   
     75. A(C   4,C   5,H  14)          119.8254         0.353106   
     76. A(C   7,C   6,O  38)           85.5811         0.282673   
     77. A(N   3,C   6,H  15)           86.9393         0.242205   
     78. A(N   3,C   6,C  19)           94.8404         0.268467   
     79. A(H  15,C   6,C  19)          121.4246         0.326913   
     80. A(C   7,C   6,C  19)          119.3548         0.374024   
     81. A(C  19,C   6,O  38)           94.4296         0.278371   
     82. A(C   7,C   6,H  15)          119.0627         0.332316   
     83. A(N   3,C   6,C   7)           92.1793         0.272543   
     84. A(N   3,C   6,O  38)          170.3566         0.210947   
     85. A(H  15,C   6,O  38)           85.9655         0.250661   
     86. A(N   3,C   7,O   9)           99.8263         0.219823   
     87. A(C   6,C   7,O   8)          123.3055         0.446105   
     88. A(C   6,C   7,O   9)          111.7363         0.414343   
     89. A(N   3,C   7,C   6)           51.9864         0.206214   
     90. A(O   8,C   7,O   9)          124.9350         0.487568   
     91. A(N   3,C   7,O   8)          111.7536         0.232595   
     92. A(C   7,O   9,C  10)          116.4278         0.422473   
     93. A(H  16,C  10,H  17)          110.2215         0.288396   
     94. A(O   9,C  10,H  17)          110.4848         0.335693   
     95. A(O   9,C  10,H  16)          106.1340         0.336533   
     96. A(H  17,C  10,H  39)          109.2097         0.287720   
     97. A(H  16,C  10,H  39)          110.2593         0.288396   
     98. A(O   9,C  10,H  39)          110.5030         0.335694   
     99. A(C  19,C  18,N  28)          116.8829         0.416825   
    100. A(N  28,C  18,N  41)          123.6753         0.437857   
    101. A(C  19,C  18,N  41)          119.4272         0.399693   
    102. A(C  18,C  19,C  20)          112.8929         0.375516   
    103. A(C   6,C  19,C  20)          111.6190         0.368930   
    104. A(C   6,C  19,C  18)          107.7270         0.374251   
    105. A(C  20,C  19,H  30)          108.6152         0.325458   
    106. A(C  18,C  19,H  30)          107.7251         0.329953   
    107. A(C   6,C  19,H  30)          108.0877         0.324414   
    108. A(C  19,C  20,C  21)          120.3158         0.400012   
    109. A(C  21,C  20,C  25)          119.2091         0.428905   
    110. A(C  19,C  20,C  25)          120.4528         0.396292   
    111. A(C  20,C  21,C  22)          121.2946         0.432863   
    112. A(C  22,C  21,H  31)          120.0438         0.351467   
    113. A(C  20,C  21,H  31)          118.6595         0.351587   
    114. A(C  21,C  22,C  23)          119.0746         0.433002   
    115. A(C  23,C  22,H  32)          120.6051         0.352164   
    116. A(C  21,C  22,H  32)          120.3203         0.351938   
    117. A(C  22,C  23,C  24)          120.7197         0.432876   
    118. A(C  24,C  23,H  33)          119.0736         0.351635   
    119. A(C  22,C  23,H  33)          120.2066         0.351958   
    120. A(C  25,C  24,H  34)          120.4354         0.350987   
    121. A(C  23,C  24,H  34)          119.6208         0.352204   
    122. A(C  23,C  24,C  25)          119.9438         0.430865   
    123. A(C  24,C  25,O  26)          123.7399         0.433006   
    124. A(C  20,C  25,O  26)          116.5018         0.430752   
    125. A(C  20,C  25,C  24)          119.7559         0.427054   
    126. A(C  25,O  26,C  27)          119.4072         0.419650   
    127. A(H  36,C  27,H  37)          109.0550         0.287631   
    128. A(H  35,C  27,H  37)          109.2267         0.287626   
    129. A(O  26,C  27,H  37)          106.4037         0.339480   
    130. A(H  35,C  27,H  36)          109.2455         0.286689   
    131. A(O  26,C  27,H  36)          111.2898         0.338298   
    132. A(O  26,C  27,H  35)          111.5419         0.338292   
    133. A(O  29,N  28,O  38)          119.2985         0.449632   
    134. A(C  18,N  28,O  38)          115.4104         0.441992   
    135. A(C  18,N  28,O  29)          125.2906         0.465060   
    136. A(C   6,O  38,N  28)          102.7506         0.297707   
    137. A(C  18,N  41,N  42)          123.5193         0.452312   
    138. A(N  41,N  42,N  43)          169.7661         0.519469   
    139. D(C   2,C   1,C   0,C   5)     -0.0081         0.026213   
    140. D(C   2,C   1,C   0,H  11)   -179.9581         0.026213   
    141. D(H  40,C   1,C   0,H  11)     -0.1291         0.026213   
    142. D(H  40,C   1,C   0,C   5)    179.8210         0.026213   
    143. D(H  12,C   2,C   1,H  40)     -0.1555         0.029436   
    144. D(N   3,C   2,C   1,C   0)      0.3300         0.029436   
    145. D(H  12,C   2,C   1,C   0)    179.6765         0.029436   
    146. D(N   3,C   2,C   1,H  40)   -179.5020         0.029436   
    147. D(C   7,N   3,C   2,H  12)     32.6525         0.052413   
    148. D(C   6,N   3,C   2,C   1)    175.5852         0.052413   
    149. D(C   4,N   3,C   2,H  12)   -179.4474         0.052413   
    150. D(C   6,N   3,C   2,H  12)     -3.7903         0.052413   
    151. D(C   4,N   3,C   2,C   1)     -0.0719         0.052413   
    152. D(C   7,N   3,C   2,C   1)   -147.9720         0.052413   
    153. D(C   5,C   4,N   3,C   2)     -0.5162         0.049275   
    154. D(H  13,C   4,N   3,C   6)      4.2390         0.049275   
    155. D(H  13,C   4,N   3,C   7)    -22.0693         0.049275   
    156. D(H  13,C   4,N   3,C   2)    179.5191         0.049275   
    157. D(C   5,C   4,N   3,C   6)   -175.7963         0.049275   
    158. D(C   5,C   4,N   3,C   7)    157.8954         0.049275   
    159. D(H  14,C   5,C   0,C   1)    179.9549         0.026337   
    160. D(C   0,C   5,C   4,N   3)      0.8205         0.027045   
    161. D(H  14,C   5,C   0,H  11)     -0.0951         0.026337   
    162. D(H  14,C   5,C   4,H  13)      0.2947         0.027045   
    163. D(H  14,C   5,C   4,N   3)   -179.6682         0.027045   
    164. D(C   4,C   5,C   0,H  11)    179.4073         0.026337   
    165. D(C   4,C   5,C   0,C   1)     -0.5427         0.026337   
    166. D(C   0,C   5,C   4,H  13)   -179.2165         0.027045   
    167. D(H  15,C   6,N   3,C   2)     16.8416         0.001769   
    168. D(C   7,C   6,N   3,C   4)    -48.6523         0.001769   
    169. D(C   7,C   6,N   3,C   2)    135.8395         0.001769   
    170. D(O  38,C   6,N   3,C   2)     59.5093         0.001769   
    171. D(O  38,C   6,N   3,C   4)   -124.9824         0.001769   
    172. D(C  19,C   6,N   3,C   7)    119.7060         0.001769   
    173. D(C  19,C   6,N   3,C   4)     71.0537         0.001769   
    174. D(C  19,C   6,N   3,C   2)   -104.4546         0.001769   
    175. D(H  15,C   6,N   3,C   7)   -118.9979         0.001769   
    176. D(H  15,C   6,N   3,C   4)   -167.6502         0.001769   
    177. D(O  38,C   6,N   3,C   7)    -76.3301         0.001769   
    178. D(N   3,C   7,C   6,O  38)    170.6041         0.015322   
    179. D(N   3,C   7,C   6,C  19)    -96.7930         0.015322   
    180. D(N   3,C   7,C   6,H  15)     87.7086         0.015322   
    181. D(O   9,C   7,C   6,O  38)     85.1033         0.015322   
    182. D(O   9,C   7,C   6,C  19)    177.7062         0.015322   
    183. D(O   9,C   7,C   6,H  15)      2.2078         0.015322   
    184. D(O   8,C   7,C   6,N   3)     92.8249         0.015322   
    185. D(O   8,C   7,C   6,O  38)    -96.5710         0.015322   
    186. D(O   8,C   7,C   6,C  19)     -3.9682         0.015322   
    187. D(O   8,C   7,C   6,H  15)   -179.4665         0.015322   
    188. D(O   9,C   7,N   3,C   6)    109.9782         0.001505   
    189. D(O   9,C   7,N   3,C   4)   -109.0275         0.001505   
    190. D(O   9,C   7,N   3,C   2)     43.5359         0.001505   
    191. D(O   8,C   7,N   3,C   6)   -116.0068         0.001505   
    192. D(O   9,C   7,C   6,N   3)    -85.5008         0.015322   
    193. D(O   8,C   7,N   3,C   4)     24.9875         0.001505   
    194. D(O   8,C   7,N   3,C   2)    177.5510         0.001505   
    195. D(C   6,C   7,N   3,C   4)    140.9943         0.001505   
    196. D(C   6,C   7,N   3,C   2)    -66.4422         0.001505   
    197. D(C  10,O   9,C   7,N   3)    127.3602         0.043112   
    198. D(C  10,O   9,C   7,O   8)      1.9241         0.043112   
    199. D(C  10,O   9,C   7,C   6)   -179.7828         0.043112   
    200. D(H  17,C  10,O   9,C   7)     61.1218         0.019281   
    201. D(H  16,C  10,O   9,C   7)   -179.3941         0.019281   
    202. D(H  39,C  10,O   9,C   7)    -59.8550         0.019281   
    203. D(H  30,C  19,C  18,N  41)     51.2606         0.013570   
    204. D(H  30,C  19,C  18,N  28)   -130.0793         0.013570   
    205. D(C  20,C  19,C  18,N  41)    -68.6561         0.013570   
    206. D(C   6,C  19,C  18,N  41)    167.6433         0.013570   
    207. D(C   6,C  19,C  18,N  28)    -13.6965         0.013570   
    208. D(H  30,C  19,C   6,N   3)    -51.6951         0.012624   
    209. D(H  30,C  19,C   6,O  38)    130.9652         0.012624   
    210. D(H  30,C  19,C   6,H  15)   -141.0616         0.012624   
    211. D(H  30,C  19,C   6,C   7)     43.5498         0.012624   
    212. D(C  20,C  19,C   6,N   3)     67.6886         0.012624   
    213. D(C  20,C  19,C   6,O  38)   -109.6511         0.012624   
    214. D(C  20,C  19,C   6,H  15)    -21.6779         0.012624   
    215. D(C  20,C  19,C   6,C   7)    162.9335         0.012624   
    216. D(C  20,C  19,C  18,N  28)    110.0041         0.013570   
    217. D(C  18,C  19,C   6,N   3)   -167.8404         0.012624   
    218. D(C  18,C  19,C   6,O  38)     14.8199         0.012624   
    219. D(C  18,C  19,C   6,H  15)    102.7931         0.012624   
    220. D(C  18,C  19,C   6,C   7)    -72.5955         0.012624   
    221. D(C  25,C  20,C  19,H  30)      6.6138         0.011559   
    222. D(C  25,C  20,C  19,C  18)    126.0174         0.011559   
    223. D(C  25,C  20,C  19,C   6)   -112.4572         0.011559   
    224. D(C  21,C  20,C  19,H  30)   -175.1179         0.011559   
    225. D(C  21,C  20,C  19,C  18)    -55.7143         0.011559   
    226. D(C  21,C  20,C  19,C   6)     65.8110         0.011559   
    227. D(H  31,C  21,C  20,C  25)    179.9805         0.026224   
    228. D(H  31,C  21,C  20,C  19)      1.6908         0.026224   
    229. D(C  22,C  21,C  20,C  25)      0.5119         0.026224   
    230. D(C  22,C  21,C  20,C  19)   -177.7778         0.026224   
    231. D(H  32,C  22,C  21,H  31)      0.3237         0.026112   
    232. D(H  32,C  22,C  21,C  20)    179.7850         0.026112   
    233. D(C  23,C  22,C  21,H  31)   -179.6104         0.026112   
    234. D(C  23,C  22,C  21,C  20)     -0.1491         0.026112   
    235. D(H  33,C  23,C  22,H  32)     -0.0240         0.026323   
    236. D(H  33,C  23,C  22,C  21)    179.9099         0.026323   
    237. D(C  24,C  23,C  22,H  32)    179.9092         0.026323   
    238. D(C  24,C  23,C  22,C  21)     -0.1569         0.026323   
    239. D(H  34,C  24,C  23,H  33)      0.0219         0.026022   
    240. D(H  34,C  24,C  23,C  22)   -179.9120         0.026022   
    241. D(C  25,C  24,C  23,H  33)   -179.9747         0.026022   
    242. D(C  25,C  24,C  23,C  22)      0.0914         0.026022   
    243. D(O  26,C  25,C  24,H  34)     -0.2975         0.024920   
    244. D(O  26,C  25,C  24,C  23)    179.6991         0.024920   
    245. D(C  20,C  25,C  24,H  34)   -179.7210         0.024920   
    246. D(C  20,C  25,C  24,C  23)      0.2757         0.024920   
    247. D(O  26,C  25,C  20,C  21)    179.9648         0.023444   
    248. D(O  26,C  25,C  20,C  19)     -1.7479         0.023444   
    249. D(C  24,C  25,C  20,C  21)     -0.5709         0.023444   
    250. D(C  24,C  25,C  20,C  19)    177.7164         0.023444   
    251. D(C  27,O  26,C  25,C  24)     -4.9772         0.031667   
    252. D(C  27,O  26,C  25,C  20)    174.4635         0.031667   
    253. D(H  37,C  27,O  26,C  25)   -176.4893         0.021735   
    254. D(H  36,C  27,O  26,C  25)    -57.8058         0.021735   
    255. D(H  35,C  27,O  26,C  25)     64.4806         0.021735   
    256. D(O  38,N  28,C  18,N  41)   -179.9635         0.046081   
    257. D(O  38,N  28,C  18,C  19)      1.4388         0.046081   
    258. D(O  29,N  28,C  18,N  41)     -0.2311         0.046081   
    259. D(O  29,N  28,C  18,C  19)   -178.8288         0.046081   
    260. D(C   6,O  38,N  28,O  29)   -171.1698         0.035482   
    261. D(C   6,O  38,N  28,C  18)      8.5798         0.035482   
    262. D(N  28,O  38,C   6,N   3)   -178.7308         0.001836   
    263. D(N  28,O  38,C   6,C  19)    -14.7574         0.001836   
    264. D(N  28,O  38,C   6,H  15)   -136.0074         0.001836   
    265. D(N  28,O  38,C   6,C   7)    104.3970         0.001836   
    266. D(N  42,N  41,C  18,N  28)     -3.0123         0.024924   
    267. D(N  42,N  41,C  18,C  19)    175.5517         0.024924   
    268. D(N  43,N  42,N  41,C  18)    179.2364         0.071229   
    -----------------------------------------------------------------

Number of atoms                         .... 44
Number of degrees of freedom            .... 268

         *************************************************************
         *                GEOMETRY OPTIMIZATION CYCLE   1            *
         *************************************************************
---------------------------------
CARTESIAN COORDINATES (ANGSTROEM)
---------------------------------
  C     -4.317163    1.068498    0.400260
  C     -3.840012    0.729372   -0.864847
  C     -2.470669    0.786300   -1.095333
  N     -1.617897    1.148394   -0.138109
  C     -2.057044    1.470598    1.078062
  C     -3.411903    1.451346    1.387893
  C      0.327822    1.034408   -0.629101
  C      0.620058    2.362681   -0.011876
  O      0.993706    2.496324    1.130638
  O      0.385898    3.355106   -0.852482
  C      0.636833    4.669808   -0.366532
  H     -5.387895    1.033631    0.614710
  H     -2.042325    0.525741   -2.067984
  H     -1.301097    1.750585    1.817697
  H     -3.743233    1.725312    2.390865
  H      0.004073    0.993768   -1.665197
  H      0.379663    5.350984   -1.184767
  H      1.696137    4.784173   -0.095600
  C      2.065875   -0.426671    0.246348
  C      0.587914   -0.232518    0.170487
  C     -0.133585   -1.425365   -0.423223
  C      0.221874   -1.907705   -1.681800
  C     -0.458516   -2.974913   -2.267200
  C     -1.511522   -3.568566   -1.574076
  C     -1.882307   -3.108252   -0.310582
  C     -1.194289   -2.036958    0.272797
  O     -1.491200   -1.527706    1.484481
  C     -2.613303   -2.013802    2.182737
  N      2.802168    0.295186   -0.567033
  O      4.045777    0.244208   -0.650142
  H      0.218563   -0.072470    1.193066
  H      1.047061   -1.425651   -2.214710
  H     -0.168856   -3.337753   -3.255652
  H     -2.058477   -4.405275   -2.016127
  H     -2.708151   -3.586970    0.216467
  H     -2.493724   -3.076312    2.451635
  H     -3.536406   -1.889908    1.592829
  H     -2.690895   -1.415885    3.098940
  O      2.135215    1.136264   -1.341349
  H      0.013449    4.880298    0.514197
  H     -4.513640    0.421331   -1.666147
  N      2.582690   -1.353384    1.125339
  N      3.773491   -1.629687    1.193723
  N      4.819831   -2.011919    1.404538

----------------------------
CARTESIAN COORDINATES (A.U.)
----------------------------
  NO LB      ZA    FRAG     MASS         X           Y           Z
   0 C     6.0000    0    12.011   -8.158256    2.019169    0.756382
   1 C     6.0000    0    12.011   -7.256571    1.378313   -1.634324
   2 C     6.0000    0    12.011   -4.668888    1.485892   -2.069879
   3 N     7.0000    0    14.007   -3.057382    2.170150   -0.260988
   4 C     6.0000    0    12.011   -3.887250    2.779027    2.037242
   5 C     6.0000    0    12.011   -6.447562    2.742646    2.622738
   6 C     6.0000    0    12.011    0.619494    1.954748   -1.188829
   7 C     6.0000    0    12.011    1.171740    4.464820   -0.022442
   8 O     8.0000    0    15.999    1.877832    4.717369    2.136596
   9 O     8.0000    0    15.999    0.729242    6.340231   -1.610958
  10 C     6.0000    0    12.011    1.203440    8.824658   -0.692645
  11 H     1.0000    0     1.008  -10.181646    1.953280    1.161634
  12 H     1.0000    0     1.008   -3.859435    0.993507   -3.907923
  13 H     1.0000    0     1.008   -2.458717    3.308126    3.434950
  14 H     1.0000    0     1.008   -7.073685    3.260367    4.518080
  15 H     1.0000    0     1.008    0.007697    1.877949   -3.146766
  16 H     1.0000    0     1.008    0.717459   10.111894   -2.238885
  17 H     1.0000    0     1.008    3.205234    9.040777   -0.180658
  18 C     6.0000    0    12.011    3.903938   -0.806291    0.465530
  19 C     6.0000    0    12.011    1.110996   -0.439395    0.322174
  20 C     6.0000    0    12.011   -0.252439   -2.693549   -0.799776
  21 C     6.0000    0    12.011    0.419281   -3.605040   -3.178141
  22 C     6.0000    0    12.011   -0.866470   -5.621771   -4.284387
  23 C     6.0000    0    12.011   -2.856363   -6.743612   -2.974573
  24 C     6.0000    0    12.011   -3.557045   -5.873745   -0.586915
  25 C     6.0000    0    12.011   -2.256879   -3.849293    0.515512
  26 O     8.0000    0    15.999   -2.817960   -2.886946    2.805263
  27 C     6.0000    0    12.011   -4.938427   -3.805534    4.124775
  28 N     7.0000    0    14.007    5.295330    0.557821   -1.071537
  29 O     8.0000    0    15.999    7.645411    0.461486   -1.228590
  30 H     1.0000    0     1.008    0.413024   -0.136948    2.254568
  31 H     1.0000    0     1.008    1.978659   -2.694090   -4.185195
  32 H     1.0000    0     1.008   -0.319092   -6.307439   -6.152291
  33 H     1.0000    0     1.008   -3.889958   -8.324763   -3.809928
  34 H     1.0000    0     1.008   -5.117664   -6.778391    0.409063
  35 H     1.0000    0     1.008   -4.712455   -5.813387    4.632919
  36 H     1.0000    0     1.008   -6.682839   -3.571409    3.010011
  37 H     1.0000    0     1.008   -5.085055   -2.675635    5.856148
  38 O     8.0000    0    15.999    4.034972    2.147228   -2.534782
  39 H     1.0000    0     1.008    0.025415    9.222427    0.971692
  40 H     1.0000    0     1.008   -8.529543    0.796200   -3.148562
  41 N     7.0000    0    14.007    4.880577   -2.557525    2.126583
  42 N     7.0000    0    14.007    7.130865   -3.079662    2.255810
  43 N     7.0000    0    14.007    9.108161   -3.801976    2.654192

--------------------------------
INTERNAL COORDINATES (ANGSTROEM)
--------------------------------
 C      0   0   0     0.000000000000     0.00000000     0.00000000
 C      1   0   0     1.393978207192     0.00000000     0.00000000
 C      2   1   0     1.389771508209   118.54248077     0.00000000
 N      3   2   1     1.332144862617   121.51387031     0.33001005
 C      4   3   2     1.332567974426   120.70081227   359.92805310
 C      5   4   3     1.389967193119   121.42026833   359.48378774
 C      4   3   2     2.009947357326   115.38816307   175.58519571
 C      7   4   3     1.493545360158    92.17925504   135.83946952
 O      8   7   4     1.209467452869   123.30547204    92.82487752
 O      8   7   4     1.321497912772   111.73633529   274.49919021
 C     10   8   7     1.423923145935   116.42776253   180.21718635
 H      1   2   3     1.092552756627   120.38656581   180.04188840
 H      3   2   1     1.094266668878   121.55717249   179.67654552
 H      5   4   3     1.094033144015   116.81943139   179.51911080
 H      6   5   4     1.091233142294   119.82540585   180.33176731
 H      7   4   3     1.086259612531    86.93926984    16.84157204
 H     11  10   8     1.095283372968   106.13401281   180.60587191
 H     11  10   8     1.099367302709   110.48484017    61.12180404
 C      7   4   3     2.433514131180   129.61027973   246.35397531
 C     19   7   4     1.492588019599    36.52482517    15.80933310
 C     20  19   7     1.515234746338   112.89287752   123.70061552
 C     21  20  19     1.393922179037   120.31576482   304.28571323
 C     22  21  20     1.394473602247   121.29456628   182.22219205
 C     23  22  21     1.393436901988   119.07461163   359.85090664
 C     24  23  22     1.394914901654   120.71969917   359.84307362
 C     25  24  23     1.400489436019   119.94376262     0.09135020
 O     26  25  24     1.347468685084   123.73993010   179.69913217
 C     27  26  25     1.408178222158   119.40717017   355.02281328
 N     19   7   4     1.313313961495    81.23429267   183.47081170
 O     29  19   7     1.247425030712   125.29055652   172.97349570
 H     20  19   7     1.098955565410   107.72510159   243.61727402
 H     22  21  20     1.094213284504   118.65951474     1.69077216
 H     23  22  21     1.092059127293   120.32026930   179.78499882
 H     24  23  22     1.093000827679   120.20662690   179.90990722
 H     25  24  23     1.090398956465   119.62083407   180.08798734
 H     28  27  26     1.102512027937   111.54189758    64.48060853
 H     28  27  26     1.102479170011   111.28980421   302.19419627
 H     28  27  26     1.096792229441   106.40367235   183.51067640
 O     29  19   7     1.323557242490   115.41037322   353.24106444
 H     11  10   8     1.099362189179   110.50296346   300.14502389
 H      2   1   3     1.091212916925   121.58777533   179.82901892
 N     19   7   4     1.377867884333   154.31570148   350.33880563
 N     42  19   7     1.224347475542   123.51933468   192.64119671
 N     43  42  19     1.133742325949   169.76611216   179.23638037

---------------------------
INTERNAL COORDINATES (A.U.)
---------------------------
 C      0   0   0     0.000000000000     0.00000000     0.00000000
 C      1   0   0     2.634237048247     0.00000000     0.00000000
 C      2   1   0     2.626287539241   118.54248077     0.00000000
 N      3   2   1     2.517388961056   121.51387031     0.33001005
 C      4   3   2     2.518188526499   120.70081227   359.92805310
 C      5   4   3     2.626657330129   121.42026833   359.48378774
 C      4   3   2     3.798250048945   115.38816307   175.58519571
 C      7   4   3     2.822391699288    92.17925504   135.83946952
 O      8   7   4     2.285562253813   123.30547204    92.82487752
 O      8   7   4     2.497269141688   111.73633529   274.49919021
 C     10   8   7     2.690824781568   116.42776253   180.21718635
 H      1   2   3     2.064625496886   120.38656581   180.04188840
 H      3   2   1     2.067864321658   121.55717249   179.67654552
 H      5   4   3     2.067423023621   116.81943139   179.51911080
 H      6   5   4     2.062131787193   119.82540585   180.33176731
 H      7   4   3     2.052733178024    86.93926984    16.84157204
 H     11  10   8     2.069785613948   106.13401281   180.60587191
 H     11  10   8     2.077503122707   110.48484017    61.12180404
 C      7   4   3     4.598675250957   129.61027973   246.35397531
 C     19   7   4     2.820582587814    36.52482517    15.80933310
 C     20  19   7     2.863378699180   112.89287752   123.70061552
 C     21  20  19     2.634131170378   120.31576482   304.28571323
 C     22  21  20     2.635173209230   121.29456628   182.22219205
 C     23  22  21     2.633214129656   119.07461163   359.85090664
 C     24  23  22     2.636007144252   120.71969917   359.84307362
 C     25  24  23     2.646541487526   119.94376262     0.09135020
 O     26  25  24     2.546346788843   123.73993010   179.69913217
 C     27  26  25     2.661071187631   119.40717017   355.02281328
 N     19   7   4     2.481803715082    81.23429267   183.47081170
 O     29  19   7     2.357291680643   125.29055652   172.97349570
 H     20  19   7     2.076725051974   107.72510159   243.61727402
 H     22  21  20     2.067763439811   118.65951474     1.69077216
 H     23  22  21     2.063692672633   120.32026930   179.78499882
 H     24  23  22     2.065472228463   120.20662690   179.90990722
 H     25  24  23     2.060555404433   119.62083407   180.08798734
 H     28  27  26     2.083445792154   111.54189758    64.48060853
 H     28  27  26     2.083383699674   111.28980421   302.19419627
 H     28  27  26     2.072636939456   106.40367235   183.51067640
 O     29  19   7     2.501160710875   115.41037322   353.24106444
 H     11  10   8     2.077493459537   110.50296346   300.14502389
 H      2   1   3     2.062093566787   121.58777533   179.82901892
 N     19   7   4     2.603792950114   154.31570148   350.33880563
 N     42  19   7     2.313681421532   123.51933468   192.64119671
 N     43  42  19     2.142462502479   169.76611216   179.23638037

---------------------
BASIS SET INFORMATION
---------------------
There are 4 groups of distinct atoms

 Group   1 Type C   : 11s6p2d1f contracted to 5s3p2d1f pattern {62111/411/11/1}
 Group   2 Type N   : 11s6p2d1f contracted to 5s3p2d1f pattern {62111/411/11/1}
 Group   3 Type O   : 11s6p2d1f contracted to 5s3p2d1f pattern {62111/411/11/1}
 Group   4 Type H   : 5s1p contracted to 3s1p pattern {311/1}

Atom   0C    basis set group =>   1
Atom   1C    basis set group =>   1
Atom   2C    basis set group =>   1
Atom   3N    basis set group =>   2
Atom   4C    basis set group =>   1
Atom   5C    basis set group =>   1
Atom   6C    basis set group =>   1
Atom   7C    basis set group =>   1
Atom   8O    basis set group =>   3
Atom   9O    basis set group =>   3
Atom  10C    basis set group =>   1
Atom  11H    basis set group =>   4
Atom  12H    basis set group =>   4
Atom  13H    basis set group =>   4
Atom  14H    basis set group =>   4
Atom  15H    basis set group =>   4
Atom  16H    basis set group =>   4
Atom  17H    basis set group =>   4
Atom  18C    basis set group =>   1
Atom  19C    basis set group =>   1
Atom  20C    basis set group =>   1
Atom  21C    basis set group =>   1
Atom  22C    basis set group =>   1
Atom  23C    basis set group =>   1
Atom  24C    basis set group =>   1
Atom  25C    basis set group =>   1
Atom  26O    basis set group =>   3
Atom  27C    basis set group =>   1
Atom  28N    basis set group =>   2
Atom  29O    basis set group =>   3
Atom  30H    basis set group =>   4
Atom  31H    basis set group =>   4
Atom  32H    basis set group =>   4
Atom  33H    basis set group =>   4
Atom  34H    basis set group =>   4
Atom  35H    basis set group =>   4
Atom  36H    basis set group =>   4
Atom  37H    basis set group =>   4
Atom  38O    basis set group =>   3
Atom  39H    basis set group =>   4
Atom  40H    basis set group =>   4
Atom  41N    basis set group =>   2
Atom  42N    basis set group =>   2
Atom  43N    basis set group =>   2
---------------------------------
AUXILIARY/J BASIS SET INFORMATION
---------------------------------
There are 4 groups of distinct atoms

 Group   1 Type C   : 12s5p4d2f1g contracted to 6s4p3d1f1g pattern {711111/2111/211/2/1}
 Group   2 Type N   : 12s5p4d2f1g contracted to 6s4p3d1f1g pattern {711111/2111/211/2/1}
 Group   3 Type O   : 12s5p4d2f1g contracted to 6s4p3d1f1g pattern {711111/2111/211/2/1}
 Group   4 Type H   : 5s2p1d contracted to 3s1p1d pattern {311/2/1}

Atom   0C    basis set group =>   1
Atom   1C    basis set group =>   1
Atom   2C    basis set group =>   1
Atom   3N    basis set group =>   2
Atom   4C    basis set group =>   1
Atom   5C    basis set group =>   1
Atom   6C    basis set group =>   1
Atom   7C    basis set group =>   1
Atom   8O    basis set group =>   3
Atom   9O    basis set group =>   3
Atom  10C    basis set group =>   1
Atom  11H    basis set group =>   4
Atom  12H    basis set group =>   4
Atom  13H    basis set group =>   4
Atom  14H    basis set group =>   4
Atom  15H    basis set group =>   4
Atom  16H    basis set group =>   4
Atom  17H    basis set group =>   4
Atom  18C    basis set group =>   1
Atom  19C    basis set group =>   1
Atom  20C    basis set group =>   1
Atom  21C    basis set group =>   1
Atom  22C    basis set group =>   1
Atom  23C    basis set group =>   1
Atom  24C    basis set group =>   1
Atom  25C    basis set group =>   1
Atom  26O    basis set group =>   3
Atom  27C    basis set group =>   1
Atom  28N    basis set group =>   2
Atom  29O    basis set group =>   3
Atom  30H    basis set group =>   4
Atom  31H    basis set group =>   4
Atom  32H    basis set group =>   4
Atom  33H    basis set group =>   4
Atom  34H    basis set group =>   4
Atom  35H    basis set group =>   4
Atom  36H    basis set group =>   4
Atom  37H    basis set group =>   4
Atom  38O    basis set group =>   3
Atom  39H    basis set group =>   4
Atom  40H    basis set group =>   4
Atom  41N    basis set group =>   2
Atom  42N    basis set group =>   2
Atom  43N    basis set group =>   2


           ************************************************************
           *        Program running with 24 parallel MPI-processes    *
           *              working on a common directory               *
           ************************************************************
------------------------------------------------------------------------------
                           ORCA GTO INTEGRAL CALCULATION
                           -- RI-GTO INTEGRALS CHOSEN --
------------------------------------------------------------------------------
------------------------------------------------------------------------------
                   ___                                                        
                  /   \      - P O W E R E D   B Y -                         
                 /     \                                                     
                 |  |  |   _    _      __       _____    __    __             
                 |  |  |  | |  | |    /  \     |  _  \  |  |  /  |          
                  \  \/   | |  | |   /    \    | | | |  |  | /  /          
                 / \  \   | |__| |  /  /\  \   | |_| |  |  |/  /          
                |  |  |   |  __  | /  /__\  \  |    /   |      \           
                |  |  |   | |  | | |   __   |  |    \   |  |\   \          
                \     /   | |  | | |  |  |  |  | |\  \  |  | \   \       
                 \___/    |_|  |_| |__|  |__|  |_| \__\ |__|  \__/        
                                                                              
                      - O R C A' S   B I G   F R I E N D -                    
                                      &                                       
                       - I N T E G R A L  F E E D E R -                       
                                                                              
 v1 FN, 2020, v2 2021                                                         
------------------------------------------------------------------------------


Reading SHARK input file TS2_N3/TS2_N3.SHARKINP.tmp ... ok
----------------------
SHARK INTEGRAL PACKAGE
----------------------

Number of atoms                             ...     44
Number of basis functions                   ...    939
Number of shells                            ...    365
Maximum angular momentum                    ...      3
Integral batch strategy                     ... SHARK/LIBINT Hybrid
RI-J (if used) integral strategy            ... SPLIT-RIJ (Revised 2003 algorithm where possible)
Printlevel                                  ...      1
Contraction scheme used                     ... SEGMENTED contraction
Coulomb Range Separation                    ... NOT USED
Exchange Range Separation                   ... NOT USED
Finite Nucleus Model                        ... NOT USED
Auxiliary Coulomb fitting basis             ... AVAILABLE
   # of basis functions in Aux-J            ...   1510
   # of shells in Aux-J                     ...    490
   Maximum angular momentum in Aux-J        ...      4
Auxiliary J/K fitting basis                 ... NOT available
Auxiliary Correlation fitting basis         ... NOT available
Auxiliary 'external' fitting basis          ... NOT available
Integral threshold                          ...     2.500000e-11
Primitive cut-off                           ...     2.500000e-12
Primitive pair pre-selection threshold      ...     2.500000e-12

Calculating pre-screening integrals         ... done (  0.1 sec) Dimension = 365
Organizing shell pair data                  ... done (  0.6 sec)
Shell pair information
Total number of shell pairs                 ...     66795
Shell pairs after pre-screening             ...     47101
Total number of primitive shell pairs       ...    207048
Primitive shell pairs kept                  ...     94395
          la=0 lb=0:  11710 shell pairs
          la=1 lb=0:  13534 shell pairs
          la=1 lb=1:   3889 shell pairs
          la=2 lb=0:   6776 shell pairs
          la=2 lb=1:   3982 shell pairs
          la=2 lb=2:   1015 shell pairs
          la=3 lb=0:   3128 shell pairs
          la=3 lb=1:   1900 shell pairs
          la=3 lb=2:    935 shell pairs
          la=3 lb=3:    232 shell pairs

Calculating one electron integrals          ... done (  0.1 sec)
Calculating RI/J V-Matrix + Cholesky decomp.... done (  0.2 sec)
Calculating Nuclear repulsion               ... done (  0.0 sec) ENN=   2626.625975604952 Eh

SHARK setup successfully completed in   1.8 seconds

Maximum memory used throughout the entire GTOINT-calculation: 71.5 MB


           ************************************************************
           *        Program running with 24 parallel MPI-processes    *
           *              working on a common directory               *
           ************************************************************
-------------------------------------------------------------------------------
                                 ORCA SCF
-------------------------------------------------------------------------------

------------
SCF SETTINGS
------------
Hamiltonian:
 Density Functional     Method          .... DFT(GTOs)
 Exchange Functional    Exchange        .... PBE
   PBE kappa parameter   XKappa         ....  0.804000
   PBE mue parameter    XMuePBE         ....  0.219520
 Correlation Functional Correlation     .... PBE
   PBE beta parameter  CBetaPBE         ....  0.066725
 LDA part of GGA corr.  LDAOpt          .... PW91-LDA
 Gradients option       PostSCFGGA      .... off
 Hybrid DFT is turned on
   Fraction HF Exchange ScalHFX         ....  0.250000
   Scaling of DF-GGA-X  ScalDFX         ....  0.750000
   Scaling of DF-GGA-C  ScalDFC         ....  1.000000
   Scaling of DF-LDA-C  ScalLDAC        ....  1.000000
   Perturbative correction              ....  0.000000
   Density functional embedding theory  .... OFF
   NL short-range parameter             ....  6.900000
 RI-approximation to the Coulomb term is turned on
   Number of AuxJ basis functions       .... 1510
   RIJ-COSX (HFX calculated with COS-X)).... on


General Settings:
 Integral files         IntName         .... TS2_N3/TS2_N3
 Hartree-Fock type      HFTyp           .... RHF
 Total Charge           Charge          ....    0
 Multiplicity           Mult            ....    1
 Number of Electrons    NEL             ....  194
 Basis Dimension        Dim             ....  939
 Nuclear Repulsion      ENuc            ....   2626.6259756050 Eh

Convergence Acceleration:
 DIIS                   CNVDIIS         .... on
   Start iteration      DIISMaxIt       ....    12
   Startup error        DIISStart       ....  0.200000
   # of expansion vecs  DIISMaxEq       ....     5
   Bias factor          DIISBfac        ....   1.050
   Max. coefficient     DIISMaxC        ....  10.000
 Trust-Rad. Augm. Hess. CNVTRAH         .... auto
   Auto Start mean grad. ratio tolernc. ....  1.125000
   Auto Start start iteration           ....    20
   Auto Start num. interpolation iter.  ....    10
   Max. Number of Micro iterations      ....    16
   Max. Number of Macro iterations      .... Maxiter - #DIIS iter
   Number of Davidson start vectors     ....     2
   Converg. threshold I  (grad. norm)   ....   1.000e-05
   Converg. threshold II (energy diff.) ....   1.000e-08
   Grad. Scal. Fac. for Micro threshold ....   0.100
   Minimum threshold for Micro iter.    ....   0.010
   NR start threshold (gradient norm)   ....   0.001
   Initial trust radius                 ....   0.400
   Minimum AH scaling param. (alpha)    ....   1.000
   Maximum AH scaling param. (alpha)    .... 1000.000
   Orbital update algorithm             .... Taylor
   White noise on init. David. guess    .... on
   Maximum white noise                  ....   0.010
   Quad. conv. algorithm                .... NR
 SOSCF                  CNVSOSCF        .... on
   Start iteration      SOSCFMaxIt      ....   150
   Startup grad/error   SOSCFStart      ....  0.003300
 Level Shifting         CNVShift        .... on
   Level shift para.    LevelShift      ....    0.2500
   Turn off err/grad.   ShiftErr        ....    0.0010
 Zerner damping         CNVZerner       .... off
 Static damping         CNVDamp         .... on
   Fraction old density DampFac         ....    0.7000
   Max. Damping (<1)    DampMax         ....    0.9800
   Min. Damping (>=0)   DampMin         ....    0.0000
   Turn off err/grad.   DampErr         ....    0.1000
 Fernandez-Rico         CNVRico         .... off

SCF Procedure:
 Maximum # iterations   MaxIter         ....   800
 SCF integral mode      SCFMode         .... Direct
   Integral package                     .... SHARK and LIBINT hybrid scheme
 Reset frequency        DirectResetFreq ....    20
 Integral Threshold     Thresh          ....  2.500e-11 Eh
 Primitive CutOff       TCut            ....  2.500e-12 Eh

Convergence Tolerance:
 Convergence Check Mode ConvCheckMode   .... Total+1el-Energy
 Convergence forced     ConvForced      .... 0
 Energy Change          TolE            ....  1.000e-08 Eh
 1-El. energy change                    ....  1.000e-05 Eh
 Orbital Gradient       TolG            ....  1.000e-05
 Orbital Rotation angle TolX            ....  1.000e-05
 DIIS Error             TolErr          ....  5.000e-07


Diagonalization of the overlap matrix:
Smallest eigenvalue                        ... 5.983e-06
Time for diagonalization                   ...    0.275 sec
Threshold for overlap eigenvalues          ... 1.000e-08
Number of eigenvalues below threshold      ... 0
Time for construction of square roots      ...    0.160 sec
Total time needed                          ...    0.442 sec

Time for model grid setup =    0.359 sec

------------------------------
INITIAL GUESS: MODEL POTENTIAL
------------------------------
Loading Hartree-Fock densities                     ... done
Calculating cut-offs                               ... done
Initializing the effective Hamiltonian             ... done
Setting up the integral package (SHARK)            ... done
Starting the Coulomb interaction                   ... done (   0.5 sec)
Reading the grid                                   ... done
Mapping shells                                     ... done
Starting the XC term evaluation                    ... done (   0.2 sec)
  promolecular density results
     # of electrons  =    193.990509650
     EX              =   -165.416142277
     EC              =     -6.568604017
     EX+EC           =   -171.984746294
Transforming the Hamiltonian                       ... done (   0.2 sec)
Diagonalizing the Hamiltonian                      ... done (   0.3 sec)
Back transforming the eigenvectors                 ... done (   0.1 sec)
Now organizing SCF variables                       ... done
                      ------------------
                      INITIAL GUESS DONE (   1.8 sec)
                      ------------------
-------------------
DFT GRID GENERATION
-------------------

General Integration Accuracy     IntAcc      ... 4.388
Radial Grid Type                 RadialGrid  ... OptM3 with GC (2021)
Angular Grid (max. ang.)         AngularGrid ... 4 (Lebedev-302)
Angular grid pruning method      GridPruning ... 4 (adaptive)
Weight generation scheme         WeightScheme... Becke
Basis function cutoff            BFCut       ... 1.0000e-11
Integration weight cutoff        WCut        ... 1.0000e-14
Angular grids for H and He will be reduced by one unit
Partially contracted basis set               ... off
Rotationally invariant grid construction     ... off

Total number of grid points                  ...   215168
Total number of batches                      ...     3387
Average number of points per batch           ...       63
Average number of grid points per atom       ...     4890
Time for grid setup =    1.571 sec

--------------------
COSX GRID GENERATION
--------------------

GRIDX 1
-------
General Integration Accuracy     IntAcc      ... 3.816
Radial Grid Type                 RadialGrid  ... OptM3 with GC (2021)
Angular Grid (max. ang.)         AngularGrid ... 1 (Lebedev-50)
Angular grid pruning method      GridPruning ... 4 (adaptive)
Weight generation scheme         WeightScheme... Becke
Basis function cutoff            BFCut       ... 1.0000e-11
Integration weight cutoff        WCut        ... 1.0000e-14
Angular grids for H and He will be reduced by one unit
Partially contracted basis set               ... on
Rotationally invariant grid construction     ... off

Total number of grid points                  ...    27226
Total number of batches                      ...      448
Average number of points per batch           ...       60
Average number of grid points per atom       ...      619
UseSFitting                                  ... on

GRIDX 2
-------
General Integration Accuracy     IntAcc      ... 4.020
Radial Grid Type                 RadialGrid  ... OptM3 with GC (2021)
Angular Grid (max. ang.)         AngularGrid ... 2 (Lebedev-110)
Angular grid pruning method      GridPruning ... 4 (adaptive)
Weight generation scheme         WeightScheme... Becke
Basis function cutoff            BFCut       ... 1.0000e-11
Integration weight cutoff        WCut        ... 1.0000e-14
Angular grids for H and He will be reduced by one unit
Partially contracted basis set               ... on
Rotationally invariant grid construction     ... off

Total number of grid points                  ...    59566
Total number of batches                      ...      957
Average number of points per batch           ...       62
Average number of grid points per atom       ...     1354
UseSFitting                                  ... on

GRIDX 3
-------
General Integration Accuracy     IntAcc      ... 4.338
Radial Grid Type                 RadialGrid  ... OptM3 with GC (2021)
Angular Grid (max. ang.)         AngularGrid ... 3 (Lebedev-194)
Angular grid pruning method      GridPruning ... 4 (adaptive)
Weight generation scheme         WeightScheme... Becke
Basis function cutoff            BFCut       ... 1.0000e-11
Integration weight cutoff        WCut        ... 1.0000e-14
Angular grids for H and He will be reduced by one unit
Partially contracted basis set               ... on
Rotationally invariant grid construction     ... off

Total number of grid points                  ...   130206
Total number of batches                      ...     2058
Average number of points per batch           ...       63
Average number of grid points per atom       ...     2959
UseSFitting                                  ... on

Time for X-Grid setup             =    2.789 sec


--------------------
CPCM SOLVATION MODEL
--------------------
CPCM parameters:
  Epsilon                                         ...      47.2000
  Refrac                                          ...       1.4790
  Rsolv                                           ...       1.3000
  Surface type                                    ... GAUSSIAN VDW
  Epsilon function type                           ...         CPCM
Radii:
 Radius for C  used is    3.8550 Bohr (=   2.0400 Ang.)
 Radius for N  used is    3.5149 Bohr (=   1.8600 Ang.)
 Radius for O  used is    3.4469 Bohr (=   1.8240 Ang.)
 Radius for H  used is    2.4944 Bohr (=   1.3200 Ang.)
Calculating surface                               ...        done! (  0.0s)
GEPOL surface points                              ...         2275
GEPOL Volume                                      ...    2791.6113
GEPOL Surface-area                                ...    1381.7100
Calculating surface distance matrix               ...        done! (  0.1s)
Performing Cholesky decomposition & store         ...        done! (  0.3s)
Overall time for CPCM initialization              ...                 0.4s
--------------
SCF ITERATIONS
--------------
ITER       Energy         Delta-E        Max-DP      RMS-DP      [F,P]     Damp
               ***  Starting incremental Fock matrix formation  ***
  0  -1306.2074200214   0.000000000000 0.35773598  0.00088197  0.2720928 0.7000
  1  -1306.4457084108  -0.238288389358 0.31979807  0.00080645  0.1114746 0.7000
                               ***Turning on DIIS***
  2  -1306.5410105287  -0.095302117982 0.40338587  0.00137697  0.0318270 0.0000
  3  -1306.7014122124  -0.160401683685 0.28013160  0.00065401  0.0540893 0.0000
  4  -1306.7285140267  -0.027101814286 0.04556824  0.00021475  0.0210853 0.0000
  5  -1306.7305569556  -0.002042928904 0.02745809  0.00007119  0.0050288 0.0000
                      *** Initiating the SOSCF procedure ***
                           *** Shutting down DIIS ***
                      *** Re-Reading the Fockian *** 
                      *** Removing any level shift *** 
ITER      Energy       Delta-E        Grad      Rot      Max-DP    RMS-DP
  6  -1306.73068103  -0.0001240787  0.000341  0.000341  0.006491  0.000021
               *** Restarting incremental Fock matrix formation ***
  7  -1306.73068754  -0.0000065025  0.000161  0.000666  0.004218  0.000019
  8  -1306.73068175   0.0000057884  0.000516  0.000553  0.001580  0.000006
  9  -1306.73069148  -0.0000097329  0.000056  0.000145  0.001260  0.000005
 10  -1306.73069085   0.0000006341  0.000093  0.000103  0.001213  0.000003
 11  -1306.73069182  -0.0000009742  0.000008  0.000045  0.000297  0.000001
 12  -1306.73069179   0.0000000288  0.000018  0.000035  0.000173  0.000001
 13  -1306.73069181  -0.0000000142  0.000003  0.000008  0.000400  0.000002
 14  -1306.73069178   0.0000000246  0.000004  0.000006  0.000218  0.000001
                  ***Gradient check signals convergence***
              ***Rediagonalizing the Fockian in SOSCF/NRSCF***

               *****************************************************
               *                     SUCCESS                       *
               *           SCF CONVERGED AFTER  15 CYCLES          *
               *****************************************************

Old exchange energy                            =    -42.037742940 Eh
New exchange energy                            =    -42.037769231 Eh
Exchange energy change after final integration =     -0.000026291 Eh
Total energy after final integration           =  -1306.730718151 Eh
Final COS-X integration done in                =    19.527 sec

----------------
TOTAL SCF ENERGY
----------------

Total Energy       :        -1306.73071815 Eh          -35557.95057 eV

Components:
Nuclear Repulsion  :         2626.62597560 Eh           71474.12647 eV
Electronic Energy  :        -3933.35669376 Eh         -107032.07704 eV
One Electron Energy:        -7005.95344569 Eh         -190641.68529 eV
Two Electron Energy:         3072.59675194 Eh           83609.60825 eV
Max COSX asymmetry :            0.00000171 Eh               0.00005 eV
CPCM Dielectric    :           -0.05055250 Eh              -1.37560 eV

Virial components:
Potential Energy   :        -2607.40246171 Eh          -70951.02806 eV
Kinetic Energy     :         1300.67174356 Eh           35393.07749 eV
Virial Ratio       :            2.00465834


DFT components:
N(Alpha)           :       97.000032780862 electrons
N(Beta)            :       97.000032780862 electrons
N(Total)           :      194.000065561723 electrons
E(X)               :     -126.021023241516 Eh       
E(C)               :       -6.566996447485 Eh       
E(XC)              :     -132.588019689001 Eh       
DFET-embed. en.    :        0.000000000000 Eh       
CPCM Solvation Model Properties:
Surface-charge          :           -0.02969898
Charge-correction       :           -0.00030278 Eh              -0.00824 eV
Free-energy (cav+disp)  :  This term is not implemented in the current solvation scheme

---------------
SCF CONVERGENCE
---------------

  Last Energy change         ...   -7.7677e-08  Tolerance :   1.0000e-08
  Last MAX-Density change    ...    1.9984e-15  Tolerance :   1.0000e-07
  Last RMS-Density change    ...    1.4984e-17  Tolerance :   5.0000e-09
  Last Orbital Gradient      ...    9.1631e-07  Tolerance :   1.0000e-05
  Last Orbital Rotation      ...    2.6548e-06  Tolerance :   1.0000e-05

             **** THE GBW FILE WAS UPDATED (TS2_N3/TS2_N3.gbw) ****
             **** DENSITY TS2_N3/TS2_N3.scfp WAS UPDATED ****
             **** ENERGY FILE WAS UPDATED (TS2_N3/TS2_N3.en.tmp) ****
             **** THE GBW FILE WAS UPDATED (TS2_N3/TS2_N3.gbw) ****
             **** DENSITY TS2_N3/TS2_N3.scfp WAS UPDATED ****
----------------
ORBITAL ENERGIES
----------------

  NO   OCC          E(Eh)            E(eV) 
   0   2.0000     -19.267757      -524.3023 
   1   2.0000     -19.247722      -523.7572 
   2   2.0000     -19.219073      -522.9776 
   3   2.0000     -19.208239      -522.6827 
   4   2.0000     -19.191450      -522.2259 
   5   2.0000     -14.566266      -396.3682 
   6   2.0000     -14.562815      -396.2743 
   7   2.0000     -14.457851      -393.4181 
   8   2.0000     -14.453461      -393.2987 
   9   2.0000     -14.443967      -393.0403 
  10   2.0000     -10.370062      -282.1837 
  11   2.0000     -10.331561      -281.1361 
  12   2.0000     -10.303923      -280.3840 
  13   2.0000     -10.296077      -280.1705 
  14   2.0000     -10.288597      -279.9670 
  15   2.0000     -10.287798      -279.9452 
  16   2.0000     -10.274383      -279.5802 
  17   2.0000     -10.270656      -279.4788 
  18   2.0000     -10.269881      -279.4577 
  19   2.0000     -10.263491      -279.2838 
  20   2.0000     -10.254257      -279.0325 
  21   2.0000     -10.253863      -279.0218 
  22   2.0000     -10.244237      -278.7599 
  23   2.0000     -10.235241      -278.5151 
  24   2.0000     -10.234456      -278.4937 
  25   2.0000     -10.230607      -278.3890 
  26   2.0000     -10.226470      -278.2764 
  27   2.0000      -1.208274       -32.8788 
  28   2.0000      -1.182276       -32.1714 
  29   2.0000      -1.159299       -31.5461 
  30   2.0000      -1.112470       -30.2718 
  31   2.0000      -1.066600       -29.0237 
  32   2.0000      -1.035209       -28.1695 
  33   2.0000      -1.028712       -27.9927 
  34   2.0000      -1.016887       -27.6709 
  35   2.0000      -0.903254       -24.5788 
  36   2.0000      -0.874805       -23.8047 
  37   2.0000      -0.854986       -23.2654 
  38   2.0000      -0.829743       -22.5784 
  39   2.0000      -0.813726       -22.1426 
  40   2.0000      -0.794765       -21.6266 
  41   2.0000      -0.779310       -21.2061 
  42   2.0000      -0.754057       -20.5189 
  43   2.0000      -0.722347       -19.6561 
  44   2.0000      -0.717850       -19.5337 
  45   2.0000      -0.685890       -18.6640 
  46   2.0000      -0.679789       -18.4980 
  47   2.0000      -0.666510       -18.1366 
  48   2.0000      -0.626327       -17.0432 
  49   2.0000      -0.614521       -16.7220 
  50   2.0000      -0.594614       -16.1803 
  51   2.0000      -0.588525       -16.0146 
  52   2.0000      -0.571345       -15.5471 
  53   2.0000      -0.557636       -15.1740 
  54   2.0000      -0.550206       -14.9719 
  55   2.0000      -0.545007       -14.8304 
  56   2.0000      -0.543683       -14.7944 
  57   2.0000      -0.525840       -14.3088 
  58   2.0000      -0.523298       -14.2397 
  59   2.0000      -0.517095       -14.0709 
  60   2.0000      -0.512220       -13.9382 
  61   2.0000      -0.509149       -13.8547 
  62   2.0000      -0.501297       -13.6410 
  63   2.0000      -0.497481       -13.5371 
  64   2.0000      -0.494312       -13.4509 
  65   2.0000      -0.491950       -13.3866 
  66   2.0000      -0.484140       -13.1741 
  67   2.0000      -0.467792       -12.7293 
  68   2.0000      -0.463942       -12.6245 
  69   2.0000      -0.459505       -12.5038 
  70   2.0000      -0.452721       -12.3192 
  71   2.0000      -0.450785       -12.2665 
  72   2.0000      -0.437918       -11.9164 
  73   2.0000      -0.434163       -11.8142 
  74   2.0000      -0.428134       -11.6501 
  75   2.0000      -0.418403       -11.3853 
  76   2.0000      -0.413940       -11.2639 
  77   2.0000      -0.397411       -10.8141 
  78   2.0000      -0.395316       -10.7571 
  79   2.0000      -0.386312       -10.5121 
  80   2.0000      -0.381370       -10.3776 
  81   2.0000      -0.373498       -10.1634 
  82   2.0000      -0.364736        -9.9250 
  83   2.0000      -0.349175        -9.5015 
  84   2.0000      -0.346488        -9.4284 
  85   2.0000      -0.344772        -9.3817 
  86   2.0000      -0.334591        -9.1047 
  87   2.0000      -0.332304        -9.0425 
  88   2.0000      -0.326619        -8.8878 
  89   2.0000      -0.321018        -8.7353 
  90   2.0000      -0.310026        -8.4362 
  91   2.0000      -0.301619        -8.2075 
  92   2.0000      -0.299268        -8.1435 
  93   2.0000      -0.280884        -7.6432 
  94   2.0000      -0.272245        -7.4082 
  95   2.0000      -0.241610        -6.5746 
  96   2.0000      -0.207591        -5.6488 
  97   0.0000      -0.057198        -1.5564 
  98   0.0000      -0.044051        -1.1987 
  99   0.0000      -0.036269        -0.9869 
 100   0.0000      -0.030864        -0.8399 
 101   0.0000      -0.026046        -0.7087 
 102   0.0000      -0.014743        -0.4012 
 103   0.0000       0.000772         0.0210 
 104   0.0000       0.046141         1.2556 
 105   0.0000       0.050299         1.3687 
 106   0.0000       0.058862         1.6017 
 107   0.0000       0.063974         1.7408 
 108   0.0000       0.066222         1.8020 
 109   0.0000       0.072166         1.9637 
 110   0.0000       0.081291         2.2121 
 111   0.0000       0.083169         2.2631 
 112   0.0000       0.089103         2.4246 
 113   0.0000       0.095821         2.6074 
 114   0.0000       0.097899         2.6640 
 115   0.0000       0.101790         2.7699 
 116   0.0000       0.112819         3.0700 
 117   0.0000       0.115831         3.1519 
 118   0.0000       0.122365         3.3297 
 119   0.0000       0.123776         3.3681 
 120   0.0000       0.127352         3.4654 
 121   0.0000       0.130005         3.5376 
 122   0.0000       0.132928         3.6172 
 123   0.0000       0.140649         3.8273 
 124   0.0000       0.142708         3.8833 
 125   0.0000       0.147890         4.0243 
 126   0.0000       0.151740         4.1291 
 127   0.0000       0.153716         4.1828 
 128   0.0000       0.162281         4.4159 
 129   0.0000       0.167374         4.5545 
 130   0.0000       0.176451         4.8015 
 131   0.0000       0.178069         4.8455 
 132   0.0000       0.183388         4.9902 
 133   0.0000       0.200235         5.4487 
 134   0.0000       0.203343         5.5332 
 135   0.0000       0.205750         5.5987 
 136   0.0000       0.211282         5.7493 
 137   0.0000       0.215497         5.8640 
 138   0.0000       0.216757         5.8983 
 139   0.0000       0.220210         5.9922 
 140   0.0000       0.220826         6.0090 
 141   0.0000       0.223776         6.0892 
 142   0.0000       0.233157         6.3445 
 143   0.0000       0.234422         6.3789 
 144   0.0000       0.236705         6.4411 
 145   0.0000       0.242948         6.6109 
 146   0.0000       0.243266         6.6196 
 147   0.0000       0.245342         6.6761 
 148   0.0000       0.254623         6.9286 
 149   0.0000       0.259662         7.0658 
 150   0.0000       0.263834         7.1793 
 151   0.0000       0.266608         7.2548 
 152   0.0000       0.271938         7.3998 
 153   0.0000       0.278966         7.5910 
 154   0.0000       0.280798         7.6409 
 155   0.0000       0.284108         7.7310 
 156   0.0000       0.289832         7.8867 
 157   0.0000       0.293392         7.9836 
 158   0.0000       0.298887         8.1331 
 159   0.0000       0.303540         8.2598 
 160   0.0000       0.308955         8.4071 
 161   0.0000       0.318084         8.6555 
 162   0.0000       0.319928         8.7057 
 163   0.0000       0.321726         8.7546 
 164   0.0000       0.322346         8.7715 
 165   0.0000       0.325443         8.8558 
 166   0.0000       0.330091         8.9822 
 167   0.0000       0.333769         9.0823 
 168   0.0000       0.338303         9.2057 
 169   0.0000       0.346447         9.4273 
 170   0.0000       0.351633         9.5684 
 171   0.0000       0.355534         9.6746 
 172   0.0000       0.356864         9.7108 
 173   0.0000       0.360162         9.8005 
 174   0.0000       0.360914         9.8210 
 175   0.0000       0.365199         9.9376 
 176   0.0000       0.371119        10.0987 
 177   0.0000       0.373932        10.1752 
 178   0.0000       0.385345        10.4858 
 179   0.0000       0.389309        10.5936 
 180   0.0000       0.390314        10.6210 
 181   0.0000       0.393392        10.7047 
 182   0.0000       0.397400        10.8138 
 183   0.0000       0.398153        10.8343 
 184   0.0000       0.406664        11.0659 
 185   0.0000       0.410960        11.1828 
 186   0.0000       0.416244        11.3266 
 187   0.0000       0.418300        11.3825 
 188   0.0000       0.420222        11.4348 
 189   0.0000       0.423520        11.5246 
 190   0.0000       0.424639        11.5550 
 191   0.0000       0.427975        11.6458 
 192   0.0000       0.434023        11.8104 
 193   0.0000       0.440175        11.9778 
 194   0.0000       0.443296        12.0627 
 195   0.0000       0.445849        12.1322 
 196   0.0000       0.449309        12.2263 
 197   0.0000       0.452254        12.3065 
 198   0.0000       0.456818        12.4307 
 199   0.0000       0.459248        12.4968 
 200   0.0000       0.461583        12.5603 
 201   0.0000       0.463148        12.6029 
 202   0.0000       0.467128        12.7112 
 203   0.0000       0.471176        12.8214 
 204   0.0000       0.475114        12.9285 
 205   0.0000       0.481179        13.0936 
 206   0.0000       0.481833        13.1113 
 207   0.0000       0.485411        13.2087 
 208   0.0000       0.490495        13.3471 
 209   0.0000       0.491390        13.3714 
 210   0.0000       0.494519        13.4566 
 211   0.0000       0.501821        13.6552 
 212   0.0000       0.504076        13.7166 
 213   0.0000       0.505925        13.7669 
 214   0.0000       0.511172        13.9097 
 215   0.0000       0.518674        14.1138 
 216   0.0000       0.522804        14.2262 
 217   0.0000       0.527805        14.3623 
 218   0.0000       0.529864        14.4183 
 219   0.0000       0.536647        14.6029 
 220   0.0000       0.541263        14.7285 
 221   0.0000       0.546599        14.8737 
 222   0.0000       0.552465        15.0333 
 223   0.0000       0.554662        15.0931 
 224   0.0000       0.565997        15.4016 
 225   0.0000       0.567289        15.4367 
 226   0.0000       0.574796        15.6410 
 227   0.0000       0.579809        15.7774 
 228   0.0000       0.583548        15.8792 
 229   0.0000       0.590153        16.0589 
 230   0.0000       0.600166        16.3314 
 231   0.0000       0.601653        16.3718 
 232   0.0000       0.606312        16.4986 
 233   0.0000       0.615159        16.7393 
 234   0.0000       0.621968        16.9246 
 235   0.0000       0.625289        17.0150 
 236   0.0000       0.634936        17.2775 
 237   0.0000       0.637497        17.3472 
 238   0.0000       0.646049        17.5799 
 239   0.0000       0.651533        17.7291 
 240   0.0000       0.655319        17.8321 
 241   0.0000       0.659867        17.9559 
[...]
 23:    187.53   0.006226   31.46  0.010360  ( 0.100411 -0.014490 -0.008249)
 24:    202.54   0.000831    4.20  0.001280  ( 0.021673  0.001243  0.028431)
 25:    212.61   0.000065    0.33  0.000096  (-0.000662 -0.005070 -0.008340)
 26:    235.88   0.003005   15.19  0.003976  ( 0.049215 -0.038746 -0.007270)
 27:    249.66   0.000239    1.21  0.000299  ( 0.015831  0.000015 -0.006975)
 28:    259.86   0.001048    5.30  0.001259  (-0.020900  0.026431  0.011111)
 29:    272.26   0.002508   12.67  0.002875  ( 0.002689  0.045101 -0.028865)
 30:    298.15   0.000262    1.32  0.000274  (-0.010291 -0.011833  0.005322)
 31:    320.12   0.000539    2.72  0.000525  ( 0.012580  0.001351  0.019111)
 32:    346.51   0.010790   54.53  0.009717  (-0.022979  0.086567 -0.041172)
 33:    376.86   0.002299   11.62  0.001904  ( 0.029787 -0.012374 -0.029381)
 34:    382.87   0.001353    6.84  0.001103  (-0.002787  0.015677  0.029141)
 35:    399.44   0.000004    0.02  0.000003  (-0.001772  0.000510 -0.000238)
 36:    445.44   0.002241   11.33  0.001570  ( 0.019882  0.033761 -0.005910)
 37:    481.87   0.001953    9.87  0.001264  (-0.033334 -0.011115 -0.005459)
 38:    489.96   0.001036    5.24  0.000660  ( 0.019327  0.011030  0.012831)
 39:    537.62   0.001626    8.22  0.000944  ( 0.008135  0.006614  0.028874)
 40:    548.24   0.002683   13.56  0.001527  ( 0.020048 -0.033215  0.004667)
 41:    558.98   0.001215    6.14  0.000678  (-0.024753  0.006489 -0.004827)
 42:    582.22   0.002519   12.73  0.001350  (-0.004179 -0.025175 -0.026432)
 43:    605.88   0.006272   31.70  0.003231  ( 0.055047 -0.007299  0.012127)
 44:    622.34   0.005840   29.51  0.002929  (-0.021178  0.046519 -0.017775)
 45:    634.72   0.003283   16.59  0.001614  ( 0.039090 -0.008942  0.002440)
 46:    654.47   0.002225   11.24  0.001061  (-0.028577  0.010578 -0.011497)
 47:    659.90   0.000012    0.06  0.000006  (-0.001498  0.000525  0.001791)
 48:    688.30   0.002934   14.83  0.001330  ( 0.002871 -0.030438 -0.019882)
 49:    714.41   0.018338   92.68  0.008010  (-0.004624  0.086365 -0.023026)
 50:    730.41   0.010298   52.04  0.004400  (-0.013629  0.064693  0.005384)
 51:    757.49   0.005309   26.83  0.002187  ( 0.024143 -0.021129  0.034028)
 52:    767.35   0.019591   99.01  0.007967  ( 0.079123 -0.035276  0.021509)
 53:    772.59   0.002906   14.69  0.001174  (-0.000120  0.025612 -0.022759)
 54:    777.35   0.013768   69.58  0.005527  (-0.038460  0.061001 -0.018072)
 55:    784.62   0.014066   71.08  0.005594  (-0.059971  0.043298 -0.011090)
 56:    808.86   0.006246   31.57  0.002410  (-0.012785 -0.010081 -0.046312)
 57:    839.57   0.003714   18.77  0.001380  ( 0.023564 -0.026435  0.011238)
 58:    874.66   0.003668   18.53  0.001309  ( 0.015659 -0.031441  0.008648)
 59:    886.99   0.005046   25.50  0.001775  ( 0.003435 -0.041786  0.004178)
 60:    896.23   0.000029    0.14  0.000010  (-0.000091  0.001932 -0.002497)
 61:    963.93   0.000848    4.28  0.000274  ( 0.009090  0.000922  0.013820)
 62:    970.07   0.001651    8.34  0.000531  ( 0.004605 -0.020626 -0.009192)
 63:    983.53   0.000313    1.58  0.000099  ( 0.002590  0.009470 -0.001722)
 64:    995.88   0.000033    0.17  0.000010  (-0.001156  0.002852  0.000888)
 65:   1019.09   0.000003    0.02  0.000001  ( 0.000206  0.000188  0.000942)
 66:   1032.97   0.010377   52.44  0.003135  ( 0.049801  0.021184  0.014359)
 67:   1041.70   0.000038    0.19  0.000011  ( 0.001409 -0.002950 -0.000743)
 68:   1043.54   0.010829   54.73  0.003238  ( 0.030511 -0.047302 -0.008370)
 69:   1060.22   0.000154    0.78  0.000045  ( 0.002499 -0.003604 -0.005095)
 70:   1070.75   0.007884   39.84  0.002298  ( 0.036437  0.029355 -0.010407)
 71:   1083.18   0.009887   49.96  0.002848  (-0.021994 -0.008505  0.047879)
 72:   1095.11   0.013403   67.73  0.003819  ( 0.049485 -0.031601  0.019288)
 73:   1100.39   0.011693   59.09  0.003316  (-0.019482 -0.030870  0.044539)
 74:   1112.46   0.006342   32.05  0.001779  ( 0.008117  0.027925 -0.030552)
 75:   1123.29   0.021386  108.08  0.005941  ( 0.018365 -0.068999  0.029034)
 76:   1142.03   0.033722  170.42  0.009215  (-0.030821 -0.056295  0.071383)
 77:   1169.14   0.000786    3.97  0.000210  ( 0.002543  0.006257  0.012809)
 78:   1171.22   0.000270    1.36  0.000072  ( 0.008359 -0.001233  0.000745)
 79:   1172.07   0.000469    2.37  0.000125  ( 0.010488  0.001625 -0.003482)
 80:   1174.83   0.002390   12.08  0.000635  ( 0.014637  0.013363 -0.015554)
 81:   1191.95   0.013477   68.11  0.003528  ( 0.007695  0.057058 -0.014612)
 82:   1196.15   0.009737   49.21  0.002540  (-0.001410  0.050331  0.002257)
 83:   1213.47   0.000820    4.15  0.000211  (-0.011968 -0.004680  0.006771)
 84:   1217.61   0.007089   35.82  0.001817  ( 0.026036  0.033338 -0.005247)
 85:   1225.34   0.004645   23.47  0.001183  ( 0.022839 -0.025502 -0.003315)
 86:   1238.95   0.009321   47.11  0.002348  ( 0.040230 -0.026883  0.002589)
 87:   1243.69   0.046184  233.40  0.011588  (-0.018147  0.099431 -0.037048)
 88:   1282.07   0.078948  398.97  0.019216  ( 0.108748 -0.085935  0.002326)
 89:   1302.17   0.069693  352.20  0.016702  ( 0.052659  0.005406 -0.117896)
 90:   1317.50   0.031841  160.91  0.007542  ( 0.083535  0.001689 -0.023683)
 91:   1324.75   0.033576  169.68  0.007909  (-0.070511 -0.053993  0.004707)
 92:   1337.98   0.012602   63.69  0.002939  (-0.035235 -0.031132  0.026991)
 93:   1344.14   0.007681   38.82  0.001783  (-0.032131 -0.027273 -0.002682)
 94:   1380.51   0.017798   89.94  0.004023  ( 0.033815  0.039967 -0.035811)
 95:   1388.66   0.002250   11.37  0.000506  ( 0.004784  0.004166 -0.021574)
 96:   1426.93   0.013558   68.52  0.002965  (-0.007801  0.053107 -0.009156)
 97:   1454.73   0.062588  316.30  0.013426  ( 0.053340 -0.088320  0.052732)
 98:   1465.35   0.003618   18.29  0.000771  (-0.026581  0.000231  0.007996)
 99:   1466.15   0.006630   33.51  0.001411  ( 0.002045  0.007551  0.036742)
100:   1472.29   0.006290   31.79  0.001333  (-0.003854  0.030068 -0.020356)
101:   1473.62   0.003109   15.71  0.000658  (-0.015520  0.019983 -0.004273)
102:   1481.22   0.015784   79.77  0.003325  (-0.010260 -0.055382 -0.012371)
103:   1483.54   0.004600   23.24  0.000968  ( 0.001626 -0.012114 -0.028604)
104:   1494.49   0.016837   85.09  0.003516  ( 0.006298  0.000691  0.058955)
105:   1498.49   0.011650   58.88  0.002426  (-0.017930  0.005139  0.045589)
106:   1529.14   0.000366    1.85  0.000075  ( 0.008518  0.001384  0.000551)
107:   1538.54   0.033214  167.85  0.006737  (-0.025617  0.023552  0.074336)
108:   1648.56   0.001325    6.70  0.000251  (-0.005160 -0.005889 -0.013766)
109:   1649.61   0.007569   38.25  0.001432  (-0.024044 -0.013183  0.026076)
110:   1664.49   0.013409   67.76  0.002514  ( 0.011275 -0.013463 -0.046964)
111:   1666.25   0.011321   57.21  0.002120  ( 0.045788 -0.001595 -0.004597)
112:   1680.79   0.046808  236.55  0.008691  ( 0.037393  0.078570 -0.033451)
113:   1780.45   0.086497  437.12  0.015160  ( 0.033354 -0.005637  0.118390)
114:   2282.70   0.335791  1696.95  0.045905  (-0.175243  0.111872 -0.051766)
115:   3038.48   0.012073   61.01  0.001240  ( 0.025691  0.011617 -0.021094)
116:   3072.67   0.005797   29.30  0.000589  (-0.003261 -0.023438 -0.005366)
117:   3106.44   0.000367    1.86  0.000037  ( 0.001695  0.005634 -0.001516)
118:   3110.75   0.007670   38.76  0.000769  (-0.015525  0.019140 -0.012731)
119:   3156.57   0.003722   18.81  0.000368  (-0.018360  0.000619  0.005523)
120:   3166.17   0.003639   18.39  0.000359  (-0.000434 -0.010335 -0.015863)
121:   3180.65   0.000716    3.62  0.000070  (-0.006109 -0.005364  0.002029)
122:   3191.97   0.002073   10.47  0.000203  ( 0.003011 -0.007477  0.011733)
123:   3196.00   0.001226    6.20  0.000120  (-0.007051 -0.008218 -0.001561)
124:   3201.14   0.000664    3.36  0.000065  ( 0.007519  0.000171  0.002857)
125:   3205.60   0.001104    5.58  0.000107  (-0.010231 -0.001367 -0.000945)
126:   3213.29   0.000040    0.20  0.000004  ( 0.000109  0.000651  0.001864)
127:   3214.65   0.002711   13.70  0.000263  (-0.001046  0.007605  0.014293)
128:   3230.63   0.000128    0.65  0.000012  ( 0.000049 -0.000481 -0.003486)
129:   3231.77   0.000425    2.15  0.000041  (-0.004535 -0.003357  0.003029)
130:   3234.77   0.000348    1.76  0.000034  (-0.005787  0.000289  0.000093)
131:   3279.05   0.000341    1.72  0.000032  (-0.003901  0.000262  0.004139)

* The epsilon (eps) is given for a Dirac delta lineshape.
** The dipole moment derivative (T) already includes vibrational overlap.

The first frequency considered to be a vibration is 7
The total number of vibrations considered is 125


--------------------------
THERMOCHEMISTRY AT 298.15K
--------------------------

Temperature         ... 298.15 K
Pressure            ... 1.00 atm
Total Mass          ... 371.35 AMU

Throughout the following assumptions are being made:
  (1) The electronic state is orbitally nondegenerate
  (2) There are no thermally accessible electronically excited states
  (3) Hindered rotations indicated by low frequency modes are not
      treated as such but are treated as vibrations and this may
      cause some error
  (4) All equations used are the standard statistical mechanics
      equations for an ideal gas
  (5) All vibrations are strictly harmonic

freq.      17.15  E(vib)   ...       0.57 
freq.      27.30  E(vib)   ...       0.55 
freq.      37.85  E(vib)   ...       0.54 
freq.      43.58  E(vib)   ...       0.53 
freq.      54.14  E(vib)   ...       0.52 
freq.      64.55  E(vib)   ...       0.50 
freq.      68.75  E(vib)   ...       0.50 
freq.      75.16  E(vib)   ...       0.49 
freq.      84.28  E(vib)   ...       0.48 
freq.     102.62  E(vib)   ...       0.46 
freq.     109.01  E(vib)   ...       0.45 
freq.     128.27  E(vib)   ...       0.43 
freq.     153.93  E(vib)   ...       0.40 
freq.     158.22  E(vib)   ...       0.39 
freq.     171.81  E(vib)   ...       0.38 
freq.     174.31  E(vib)   ...       0.38 
freq.     187.53  E(vib)   ...       0.36 
freq.     202.54  E(vib)   ...       0.35 
freq.     212.61  E(vib)   ...       0.34 
freq.     235.88  E(vib)   ...       0.32 
freq.     249.66  E(vib)   ...       0.31 
freq.     259.86  E(vib)   ...       0.30 
freq.     272.26  E(vib)   ...       0.29 
freq.     298.15  E(vib)   ...       0.27 
freq.     320.12  E(vib)   ...       0.25 
freq.     346.51  E(vib)   ...       0.23 
freq.     376.86  E(vib)   ...       0.21 
freq.     382.87  E(vib)   ...       0.20 
freq.     399.44  E(vib)   ...       0.19 
freq.     445.44  E(vib)   ...       0.17 
freq.     481.87  E(vib)   ...       0.15 
freq.     489.96  E(vib)   ...       0.15 
freq.     537.62  E(vib)   ...       0.12 
freq.     548.24  E(vib)   ...       0.12 
freq.     558.98  E(vib)   ...       0.12 
freq.     582.22  E(vib)   ...       0.11 
freq.     605.88  E(vib)   ...       0.10 
freq.     622.34  E(vib)   ...       0.09 
freq.     634.72  E(vib)   ...       0.09 
freq.     654.47  E(vib)   ...       0.08 
freq.     659.90  E(vib)   ...       0.08 
freq.     688.30  E(vib)   ...       0.07 
freq.     714.41  E(vib)   ...       0.07 
freq.     730.41  E(vib)   ...       0.06 
freq.     757.49  E(vib)   ...       0.06 
freq.     767.35  E(vib)   ...       0.06 
freq.     772.59  E(vib)   ...       0.05 
freq.     777.35  E(vib)   ...       0.05 
freq.     784.62  E(vib)   ...       0.05 
freq.     808.86  E(vib)   ...       0.05 
freq.     839.57  E(vib)   ...       0.04 
freq.     874.66  E(vib)   ...       0.04 
freq.     886.99  E(vib)   ...       0.04 
freq.     896.23  E(vib)   ...       0.03 
freq.     963.93  E(vib)   ...       0.03 
freq.     970.07  E(vib)   ...       0.03 
freq.     983.53  E(vib)   ...       0.02 
freq.     995.88  E(vib)   ...       0.02 
freq.    1019.09  E(vib)   ...       0.02 
freq.    1032.97  E(vib)   ...       0.02 
freq.    1041.70  E(vib)   ...       0.02 
freq.    1043.54  E(vib)   ...       0.02 
freq.    1060.22  E(vib)   ...       0.02 
freq.    1070.75  E(vib)   ...       0.02 
freq.    1083.18  E(vib)   ...       0.02 
freq.    1095.11  E(vib)   ...       0.02 
freq.    1100.39  E(vib)   ...       0.02 
freq.    1112.46  E(vib)   ...       0.01 
freq.    1123.29  E(vib)   ...       0.01 
freq.    1142.03  E(vib)   ...       0.01 
freq.    1169.14  E(vib)   ...       0.01 
freq.    1171.22  E(vib)   ...       0.01 
freq.    1172.07  E(vib)   ...       0.01 
freq.    1174.83  E(vib)   ...       0.01 
freq.    1191.95  E(vib)   ...       0.01 
freq.    1196.15  E(vib)   ...       0.01 
freq.    1213.47  E(vib)   ...       0.01 
freq.    1217.61  E(vib)   ...       0.01 
freq.    1225.34  E(vib)   ...       0.01 
freq.    1238.95  E(vib)   ...       0.01 
freq.    1243.69  E(vib)   ...       0.01 
freq.    1282.07  E(vib)   ...       0.01 
freq.    1302.17  E(vib)   ...       0.01 
freq.    1317.50  E(vib)   ...       0.01 
freq.    1324.75  E(vib)   ...       0.01 
freq.    1337.98  E(vib)   ...       0.01 
freq.    1344.14  E(vib)   ...       0.01 
freq.    1380.51  E(vib)   ...       0.01 
freq.    1388.66  E(vib)   ...       0.00 
freq.    1426.93  E(vib)   ...       0.00 
freq.    1454.73  E(vib)   ...       0.00 
freq.    1465.35  E(vib)   ...       0.00 
freq.    1466.15  E(vib)   ...       0.00 
freq.    1472.29  E(vib)   ...       0.00 
freq.    1473.62  E(vib)   ...       0.00 
freq.    1481.22  E(vib)   ...       0.00 
freq.    1483.54  E(vib)   ...       0.00 
freq.    1494.49  E(vib)   ...       0.00 
freq.    1498.49  E(vib)   ...       0.00 
freq.    1529.14  E(vib)   ...       0.00 
freq.    1538.54  E(vib)   ...       0.00 
freq.    1648.56  E(vib)   ...       0.00 
freq.    1649.61  E(vib)   ...       0.00 
freq.    1664.49  E(vib)   ...       0.00 
freq.    1666.25  E(vib)   ...       0.00 
freq.    1680.79  E(vib)   ...       0.00 
freq.    1780.45  E(vib)   ...       0.00 
freq.    2282.70  E(vib)   ...       0.00 
freq.    3038.48  E(vib)   ...       0.00 
freq.    3072.67  E(vib)   ...       0.00 
freq.    3106.44  E(vib)   ...       0.00 
freq.    3110.75  E(vib)   ...       0.00 
freq.    3156.57  E(vib)   ...       0.00 
freq.    3166.17  E(vib)   ...       0.00 
freq.    3180.65  E(vib)   ...       0.00 
freq.    3191.97  E(vib)   ...       0.00 
freq.    3196.00  E(vib)   ...       0.00 
freq.    3201.14  E(vib)   ...       0.00 
freq.    3205.60  E(vib)   ...       0.00 
freq.    3213.29  E(vib)   ...       0.00 
freq.    3214.65  E(vib)   ...       0.00 
freq.    3230.63  E(vib)   ...       0.00 
freq.    3231.77  E(vib)   ...       0.00 
freq.    3234.77  E(vib)   ...       0.00 
freq.    3279.05  E(vib)   ...       0.00 

------------
INNER ENERGY
------------

The inner energy is: U= E(el) + E(ZPE) + E(vib) + E(rot) + E(trans)
    E(el)   - is the total energy from the electronic structure calculation
              = E(kin-el) + E(nuc-el) + E(el-el) + E(nuc-nuc)
    E(ZPE)  - the the zero temperature vibrational energy from the frequency calculation
    E(vib)  - the the finite temperature correction to E(ZPE) due to population
              of excited vibrational states
    E(rot)  - is the rotational thermal energy
    E(trans)- is the translational thermal energy

Summary of contributions to the inner energy U:
Electronic energy                ...  -1306.79073408 Eh
Zero point energy                ...      0.33546924 Eh     210.51 kcal/mol
Thermal vibrational correction   ...      0.02192617 Eh      13.76 kcal/mol
Thermal rotational correction    ...      0.00141627 Eh       0.89 kcal/mol
Thermal translational correction ...      0.00141627 Eh       0.89 kcal/mol
-----------------------------------------------------------------------
Total thermal energy                  -1306.43050612 Eh


Summary of corrections to the electronic energy:
(perhaps to be used in another calculation)
Total thermal correction                  0.02475871 Eh      15.54 kcal/mol
Non-thermal (ZPE) correction              0.33546924 Eh     210.51 kcal/mol
-----------------------------------------------------------------------
Total correction                          0.36022796 Eh     226.05 kcal/mol


--------
ENTHALPY
--------

The enthalpy is H = U + kB*T
                kB is Boltzmann's constant
Total free energy                 ...  -1306.43050612 Eh 
Thermal Enthalpy correction       ...      0.00094421 Eh       0.59 kcal/mol
-----------------------------------------------------------------------
Total Enthalpy                    ...  -1306.42956191 Eh


Note: Only C1 symmetry has been detected, increase convergence thresholds 
      if your molecule has a higher symmetry. Symmetry factor of 1.0 is   
      used for the rotational entropy correction. 
 

Note: Rotational entropy computed according to Herzberg 
Infrared and Raman Spectra, Chapter V,1, Van Nostrand Reinhold, 1945 
Point Group:  C1, Symmetry Number:   1  
Rotational constants in cm-1:     0.008070     0.006428     0.004502 

Vibrational entropy computed according to the QRRHO of S. Grimme
Chem.Eur.J. 2012 18 9955


-------
ENTROPY
-------

The entropy contributions are T*S = T*(S(el)+S(vib)+S(rot)+S(trans))
     S(el)   - electronic entropy
     S(vib)  - vibrational entropy
     S(rot)  - rotational entropy
     S(trans)- translational entropy
The entropies will be listed as multiplied by the temperature to get
units of energy

Electronic entropy                ...      0.00000000 Eh      0.00 kcal/mol
Vibrational entropy               ...      0.03982706 Eh     24.99 kcal/mol
Rotational entropy                ...      0.01671958 Eh     10.49 kcal/mol
Translational entropy             ...      0.02072937 Eh     13.01 kcal/mol
-----------------------------------------------------------------------
Final entropy term                ...      0.07727600 Eh     48.49 kcal/mol

In case the symmetry of your molecule has not been determined correctly
or in case you have a reason to use a different symmetry number we print 
out the resulting rotational entropy values for sn=1,12 :
 --------------------------------------------------------
|  sn= 1 | S(rot)=       0.01671958 Eh     10.49 kcal/mol|
|  sn= 2 | S(rot)=       0.01606512 Eh     10.08 kcal/mol|
|  sn= 3 | S(rot)=       0.01568229 Eh      9.84 kcal/mol|
|  sn= 4 | S(rot)=       0.01541066 Eh      9.67 kcal/mol|
|  sn= 5 | S(rot)=       0.01519997 Eh      9.54 kcal/mol|
|  sn= 6 | S(rot)=       0.01502783 Eh      9.43 kcal/mol|
|  sn= 7 | S(rot)=       0.01488228 Eh      9.34 kcal/mol|
|  sn= 8 | S(rot)=       0.01475621 Eh      9.26 kcal/mol|
|  sn= 9 | S(rot)=       0.01464500 Eh      9.19 kcal/mol|
|  sn=10 | S(rot)=       0.01454552 Eh      9.13 kcal/mol|
|  sn=11 | S(rot)=       0.01445553 Eh      9.07 kcal/mol|
|  sn=12 | S(rot)=       0.01437337 Eh      9.02 kcal/mol|
 --------------------------------------------------------


-------------------
GIBBS FREE ENERGY
-------------------

The Gibbs free energy is G = H - T*S

Total enthalpy                    ...  -1306.42956191 Eh 
Total entropy correction          ...     -0.07727600 Eh    -48.49 kcal/mol
-----------------------------------------------------------------------
Final Gibbs free energy         ...  -1306.50683791 Eh

For completeness - the Gibbs free energy minus the electronic energy
G-E(el)                           ...      0.28389617 Eh    178.15 kcal/mol


Timings for individual modules:

Sum of individual times         ...     8747.839 sec (= 145.797 min)
GTO integral calculation        ...       79.659 sec (=   1.328 min)   0.9 %
SCF iterations                  ...     3947.546 sec (=  65.792 min)  45.1 %
SCF Gradient evaluation         ...     1006.294 sec (=  16.772 min)  11.5 %
Geometry relaxation             ...        4.718 sec (=   0.079 min)   0.1 %
Analytical frequency calculation...     3709.622 sec (=  61.827 min)  42.4 %
                             ****ORCA TERMINATED NORMALLY****
TOTAL RUN TIME: 0 days 2 hours 27 minutes 12 seconds 557 msec
