
                                 *****************
                                 * O   R   C   A *
                                 *****************

                                            #,                                       
                                            ###                                      
                                            ####                                     
                                            #####                                    
                                            ######                                   
                                           ########,                                 
                                     ,,################,,,,,                         
                               ,,#################################,,                 
                          ,,##########################################,,             
                       ,#########################################, ''#####,          
                    ,#############################################,,   '####,        
                  ,##################################################,,,,####,       
                ,###########''''           ''''###############################       
              ,#####''   ,,,,##########,,,,          '''####'''          '####       
            ,##' ,,,,###########################,,,                        '##       
           ' ,,###''''                  '''############,,,                           
         ,,##''                                '''############,,,,        ,,,,,,###''
      ,#''                                            '''#######################'''  
     '                                                          ''''####''''         
             ,#######,   #######,   ,#######,      ##                                
            ,#'     '#,  ##    ##  ,#'     '#,    #''#        ######   ,####,        
            ##       ##  ##   ,#'  ##            #'  '#       #        #'  '#        
            ##       ##  #######   ##           ,######,      #####,   #    #        
            '#,     ,#'  ##    ##  '#,     ,#' ,#      #,         ##   #,  ,#        
             '#######'   ##     ##  '#######'  #'      '#     #####' # '####'        



                  #######################################################
                  #                        -***-                        #
                  #          Department of theory and spectroscopy      #
                  #    Directorship and core code : Frank Neese         #
                  #        Max Planck Institute fuer Kohlenforschung    #
                  #                Kaiser Wilhelm Platz 1               #
                  #                 D-45470 Muelheim/Ruhr               #
                  #                      Germany                        #
                  #                                                     #
                  #                  All rights reserved                #
                  #                        -***-                        #
                  #######################################################


                         Program Version 5.0.4 -  RELEASE  -


 With contributions from (in alphabetic order):
   Daniel Aravena         : Magnetic Suceptibility
   Michael Atanasov       : Ab Initio Ligand Field Theory (pilot matlab implementation)
   Alexander A. Auer      : GIAO ZORA, VPT2 properties, NMR spectrum
   Ute Becker             : Parallelization
   Giovanni Bistoni       : ED, misc. LED, open-shell LED, HFLD
   Martin Brehm           : Molecular dynamics
   Dmytro Bykov           : SCF Hessian
   Vijay G. Chilkuri      : MRCI spin determinant printing, contributions to CSF-ICE
   Dipayan Datta          : RHF DLPNO-CCSD density
   Achintya Kumar Dutta   : EOM-CC, STEOM-CC
   Dmitry Ganyushin       : Spin-Orbit,Spin-Spin,Magnetic field MRCI
   Miquel Garcia          : C-PCM and meta-GGA Hessian, CC/C-PCM, Gaussian charge scheme
   Yang Guo               : DLPNO-NEVPT2, F12-NEVPT2, CIM, IAO-localization
   Andreas Hansen         : Spin unrestricted coupled pair/coupled cluster methods
   Benjamin Helmich-Paris : MC-RPA, TRAH-SCF, COSX integrals
   Lee Huntington         : MR-EOM, pCC
   Robert Izsak           : Overlap fitted RIJCOSX, COSX-SCS-MP3, EOM
   Marcus Kettner         : VPT2
   Christian Kollmar      : KDIIS, OOCD, Brueckner-CCSD(T), CCSD density, CASPT2, CASPT2-K
   Simone Kossmann        : Meta GGA functionals, TD-DFT gradient, OOMP2, MP2 Hessian
   Martin Krupicka        : Initial AUTO-CI
   Lucas Lang             : DCDCAS
   Marvin Lechner         : AUTO-CI (C++ implementation), FIC-MRCC
   Dagmar Lenk            : GEPOL surface, SMD
   Dimitrios Liakos       : Extrapolation schemes; Compound Job, initial MDCI parallelization
   Dimitrios Manganas     : Further ROCIS development; embedding schemes
   Dimitrios Pantazis     : SARC Basis sets
   Anastasios Papadopoulos: AUTO-CI, single reference methods and gradients
   Taras Petrenko         : DFT Hessian,TD-DFT gradient, ASA, ECA, R-Raman, ABS, FL, XAS/XES, NRVS
   Peter Pinski           : DLPNO-MP2, DLPNO-MP2 Gradient
   Christoph Reimann      : Effective Core Potentials
   Marius Retegan         : Local ZFS, SOC
   Christoph Riplinger    : Optimizer, TS searches, QM/MM, DLPNO-CCSD(T), (RO)-DLPNO pert. Triples
   Tobias Risthaus        : Range-separated hybrids, TD-DFT gradient, RPA, STAB
   Michael Roemelt        : Original ROCIS implementation
   Masaaki Saitow         : Open-shell DLPNO-CCSD energy and density
   Barbara Sandhoefer     : DKH picture change effects
   Avijit Sen             : IP-ROCIS
   Kantharuban Sivalingam : CASSCF convergence, NEVPT2, FIC-MRCI
   Bernardo de Souza      : ESD, SOC TD-DFT
   Georgi Stoychev        : AutoAux, RI-MP2 NMR, DLPNO-MP2 response
   Willem Van den Heuvel  : Paramagnetic NMR
   Boris Wezisla          : Elementary symmetry handling
   Frank Wennmohs         : Technical directorship


 We gratefully acknowledge several colleagues who have allowed us to
 interface, adapt or use parts of their codes:
   Stefan Grimme, W. Hujo, H. Kruse, P. Pracht,  : VdW corrections, initial TS optimization,
                  C. Bannwarth, S. Ehlert          DFT functionals, gCP, sTDA/sTD-DF
   Ed Valeev, F. Pavosevic, A. Kumar             : LibInt (2-el integral package), F12 methods
   Garnet Chan, S. Sharma, J. Yang, R. Olivares  : DMRG
   Ulf Ekstrom                                   : XCFun DFT Library
   Mihaly Kallay                                 : mrcc  (arbitrary order and MRCC methods)
   Jiri Pittner, Ondrej Demel                    : Mk-CCSD
   Frank Weinhold                                : gennbo (NPA and NBO analysis)
   Christopher J. Cramer and Donald G. Truhlar   : smd solvation model
   Lars Goerigk                                  : TD-DFT with DH, B97 family of functionals
   V. Asgeirsson, H. Jonsson                     : NEB implementation
   FAccTs GmbH                                   : IRC, NEB, NEB-TS, DLPNO-Multilevel, CI-OPT
                                                   MM, QMMM, 2- and 3-layer-ONIOM, Crystal-QMMM,
                                                   LR-CPCM, SF, NACMEs, symmetry and pop. for TD-DFT,
                                                   nearIR, NL-DFT gradient (VV10), updates on ESD,
                                                   ML-optimized integration grids
   S Lehtola, MJT Oliveira, MAL Marques          : LibXC Library
   Liviu Ungur et al                             : ANISO software


 Your calculation uses the libint2 library for the computation of 2-el integrals
 For citations please refer to: http://libint.valeyev.net

 Your ORCA version has been built with support for libXC version: 5.1.0
 For citations please refer to: https://tddft.org/programs/libxc/

 This ORCA versions uses:
   CBLAS   interface :  Fast vector & matrix operations
   LAPACKE interface :  Fast linear algebra routines
   SCALAPACK package :  Parallel linear algebra routines
   Shared memory     :  Shared parallel matrices
   BLAS/LAPACK       :  OpenBLAS 0.3.15  USE64BITINT DYNAMIC_ARCH NO_AFFINITY Haswell SINGLE_THREADED
        Core in use  :  Haswell
   Copyright (c) 2011-2014, The OpenBLAS Project


Your calculation utilizes the atom-pairwise dispersion correction
with the Becke-Johnson damping scheme (D3BJ)
Cite in your paper:
S.Grimme, S.Ehrlich, L.Goerigk, J Comput Chem, (2011), 32, 1456–1465 
S.Grimme, J.Antony, S.Ehrlich and H.Krieg, J.Chem.Phys., 132, (2010), 154104 
   

================================================================================

----- Orbital basis set information -----
Your calculation utilizes the basis: def2-TZVP
   F. Weigend and R. Ahlrichs, Phys. Chem. Chem. Phys. 7, 3297 (2005).

----- AuxJ basis set information -----
Your calculation utilizes the auxiliary basis: def2/J
   F. Weigend, Phys. Chem. Chem. Phys. 8, 1057 (2006).

================================================================================
                                        WARNINGS
                       Please study these warnings very carefully!
================================================================================


WARNING: Geometry Optimization
  ===> : Switching off AutoStart
         For restart on a previous wavefunction, please use MOREAD

INFO   : the flag for use of the SHARK integral package has been found!

================================================================================
                                       INPUT FILE
================================================================================
NAME = TS2_CHCHNMe2/TS2_CHCHNMe2.inp
|  1> %pal nprocs 24 end
|  2> %maxcore 3500
|  3> ! PBE0 D3BJ def2-TZVP TightSCF OPTTS FREQ TightOpt
|  4> ! CPCM(dmso)
|  5> %scf
|  6> MaxIter 800
|  7> end
|  8> 
|  9> %geom
| 10> MaxIter 800
| 11> MaxStep 0.2
| 12> end
| 13> 
| 14> *xyz 0 1
| 15> C      -3.88819700      1.43240800      0.66327200
| 16> C      -3.62784400      1.26858000     -0.68844100
| 17> C      -2.31267300      1.18929200     -1.10501500
| 18> N      -1.30409800      1.25857000     -0.24334900
| 19> C      -1.54048300      1.41296200      1.05526400
| 20> C      -2.82660000      1.51094500      1.55059400
| 21> C       0.49878500      1.04398400     -0.99531400
| 22> C       0.99364800      2.32505700     -0.41109900
| 23> O       0.79692700      3.40764800     -0.90655900
| 24> O       1.63540000      2.12512300      0.73268000
| 25> C       2.17840700      3.29043700      1.35903200
| 26> H      -4.90868400      1.49696500      1.02141400
| 27> H      -2.05494500      1.05893900     -2.15052600
| 28> H      -0.67671700      1.45383000      1.70907800
| 29> H      -2.98461400      1.63855700      2.61348300
| 30> H       0.05646300      1.12147700     -1.97373100
| 31> H       1.38188200      3.99287600      1.60477500
| 32> H       2.90054800      3.76921000      0.69762300
| 33> C       2.21040700     -0.66046200     -0.48293200
| 34> C       0.75671300     -0.31711400     -0.37671700
| 35> C      -0.12326400     -1.36780000     -1.02172100
| 36> C       0.04886100     -1.69021300     -2.35933800
| 37> C      -0.75506600     -2.63018700     -2.98728900
| 38> C      -1.74695400     -3.26520000     -2.25680800
| 39> C      -1.93417500     -2.96869700     -0.91408000
| 40> C      -1.12460800     -2.02128800     -0.29359900
| 41> O      -1.23884600     -1.68193600      1.00992400
| 42> C      -2.26209800     -2.28595900      1.77603700
| 43> N       2.88977400      0.09006600     -1.31019600
| 44> O       4.12634500     -0.00860100     -1.57086600
| 45> H       0.50688300     -0.25755700      0.68341100
| 46> H       0.83309000     -1.18861400     -2.91775100
| 47> H      -0.60586200     -2.86437700     -4.03442500
| 48> H      -2.38524200     -4.00394400     -2.72824200
| 49> H      -2.70900400     -3.47796900     -0.35717700
| 50> H      -3.24810900     -2.06930700      1.35568100
| 51> H      -2.18847400     -1.85087200      2.77054900
| 52> H      -2.12134500     -3.36868500      1.83967600
| 53> O       2.21446100      1.05902600     -1.92838700
| 54> H       2.66671100      2.93656400      2.26299600
| 55> H      -4.42671300      1.20047500     -1.41515900
| 56> C       2.82665800     -1.72893300      0.23672300
| 57> H       3.87031900     -1.91213700      0.01781900
| 58> C       2.15341800     -2.48303200      1.14077000
| 59> H       1.09925600     -2.30054100      1.32415600
| 60> N       2.66738700     -3.47742600      1.90876100
| 61> C       1.76088200     -4.46346600      2.44932500
| 62> H       1.58492800     -5.29034100      1.74766300
| 63> H       2.17180400     -4.87816500      3.37172800
| 64> H       0.80216000     -3.99414000      2.67398100
| 65> C       4.02654900     -3.89999200      1.69828800
| 66> H       4.30987200     -4.59766000      2.48605700
| 67> H       4.15964600     -4.39549400      0.72575600
| 68> H       4.69986600     -3.04085500      1.73679500
| 69> *
| 70> 
| 71>                          ****END OF INPUT****
================================================================================

                       *****************************
                       * Geometry Optimization Run *
                       *****************************

Geometry optimization settings:
Update method            Update   .... Bofill
Choice of coordinates    CoordSys .... Z-matrix Internals
Initial Hessian          InHess   .... Almoef's Model

Convergence Tolerances:
Energy Change            TolE     ....  1.0000e-06 Eh
Max. Gradient            TolMAXG  ....  1.0000e-04 Eh/bohr
RMS Gradient             TolRMSG  ....  3.0000e-05 Eh/bohr
Max. Displacement        TolMAXD  ....  1.0000e-03 bohr
RMS Displacement         TolRMSD  ....  6.0000e-04 bohr
Strict Convergence                ....  False
------------------------------------------------------------------------------
                        ORCA OPTIMIZATION COORDINATE SETUP
------------------------------------------------------------------------------

The optimization will be done in new redundant internal coordinates
Making redundant internal coordinates   ...  (new redundants) done
Following TS mode number                ...     0
Evaluating the initial hessian          ...  (Almloef) done
Evaluating the coordinates              ...  done
Calculating the B-matrix                .... done
Calculating the G-matrix                .... done
Diagonalizing the G-matrix              .... done
Small eigenvalue found = 3.588e-03
Small eigenvalue found = 8.400e-03
Small eigenvalue found = 1.074e-02
Small eigenvalue found = 1.603e-02
Small eigenvalue found = 1.892e-02
Small eigenvalue found = 2.075e-02
Small eigenvalue found = 2.857e-02
The first mode is                       ....  162
The number of degrees of freedom        ....  156

    -----------------------------------------------------------------
                    Redundant Internal Coordinates


    -----------------------------------------------------------------
         Definition                    Initial Value    Approx d2E/dq
    -----------------------------------------------------------------
      1. B(C   1,C   0)                  1.3863         0.633411   
      2. B(C   2,C   1)                  1.3818         0.643798   
      3. B(N   3,C   2)                  1.3283         0.701855   
      4. B(C   4,N   3)                  1.3290         0.700286   
      5. B(C   5,C   4)                  1.3817         0.644180   
      6. B(C   5,C   0)                  1.3858         0.634465   
      7. B(C   6,N   3)                  1.9652         0.067644   
      8. B(C   7,N   3)                  2.5387         0.008225   
      9. B(C   7,C   6)                  1.4924         0.428864   
     10. B(O   8,C   7)                  1.2067         1.097187   
     11. B(O   9,C   7)                  1.3267         0.706182   
     12. B(C  10,O   9)                  1.4301         0.482981   
     13. B(H  11,C   0)                  1.0834         0.368893   
     14. B(H  12,C   2)                  1.0847         0.367220   
     15. B(H  13,C   4)                  1.0841         0.368014   
     16. B(H  14,C   5)                  1.0821         0.370675   
     17. B(H  15,H  12)                  2.1197         0.001569   
     18. B(H  15,N   3)                  2.2055         0.005357   
     19. B(H  15,C   2)                  2.5243         0.001854   
     20. B(H  15,C   6)                  1.0765         0.378344   
     21. B(H  16,C  10)                  1.0901         0.360002   
     22. B(H  17,C  10)                  1.0900         0.360056   
     23. B(C  19,C  18)                  1.4975         0.421006   
     24. B(C  19,C   6)                  1.5172         0.391617   
     25. B(C  20,C  19)                  1.5147         0.395166   
     26. B(C  21,C  20)                  1.3866         0.632535   
     27. B(C  22,C  21)                  1.3871         0.631383   
     28. B(C  23,C  22)                  1.3859         0.634306   
     29. B(C  24,C  23)                  1.3878         0.629954   
     30. B(C  25,C  24)                  1.3921         0.619965   
     31. B(C  25,C  20)                  1.4000         0.602341   
     32. B(O  26,C  25)                  1.3518         0.643887   
     33. B(C  27,O  26)                  1.4138         0.512757   
     34. B(N  28,C  18)                  1.3074         0.758085   
     35. B(O  29,N  28)                  1.2676         0.785787   
     36. B(H  30,H  13)                  2.3199         0.000752   
     37. B(H  30,N   3)                  2.5372         0.001584   
     38. B(H  30,C  19)                  1.0908         0.359050   
     39. B(H  31,C  21)                  1.0856         0.366021   
     40. B(H  32,C  22)                  1.0833         0.369035   
     41. B(H  33,C  23)                  1.0842         0.367908   
     42. B(H  34,C  24)                  1.0816         0.371385   
     43. B(H  35,C  27)                  1.0936         0.355432   
     44. B(H  35,H  11)                  3.9481         0.000002   
     45. B(H  36,C  27)                  1.0880         0.362736   
     46. B(H  37,C  27)                  1.0937         0.355252   
     47. B(O  38,N  28)                  1.3331         0.617776   
     48. B(O  38,C   6)                  1.9530         0.070724   
     49. B(H  39,C  10)                  1.0867         0.364553   
     50. B(H  40,C   1)                  1.0821         0.370698   
     51. B(C  41,C  18)                  1.4280         0.543310   
     52. B(H  42,C  41)                  1.0820         0.370848   
     53. B(C  43,C  41)                  1.3562         0.707456   
     54. B(H  44,C  43)                  1.0854         0.366176   
     55. B(N  45,C  43)                  1.3575         0.630572   
     56. B(C  46,N  45)                  1.4444         0.458263   
     57. B(H  47,C  46)                  1.0986         0.348849   
     58. B(H  48,C  46)                  1.0916         0.357948   
     59. B(H  49,H  37)                  3.1039         0.000042   
     60. B(H  49,C  46)                  1.0908         0.359019   
     61. B(C  50,N  45)                  1.4388         0.467733   
     62. B(H  51,C  50)                  1.0898         0.360408   
     63. B(H  52,C  50)                  1.0996         0.347659   
     64. B(H  53,C  50)                  1.0922         0.357169   
     65. A(C   5,C   0,H  11)          120.4313         0.355743   
     66. A(C   1,C   0,C   5)          119.1536         0.437556   
     67. A(C   1,C   0,H  11)          120.4150         0.355642   
     68. A(C   0,C   1,C   2)          118.6511         0.438710   
     69. A(C   0,C   1,H  40)          121.5757         0.355937   
     70. A(C   2,C   1,H  40)          119.7732         0.356922   
     71. A(N   3,C   2,H  12)          116.8153         0.359383   
     72. A(C   1,C   2,H  12)          121.5753         0.356351   
     73. A(C   1,C   2,N   3)          121.6073         0.443982   
     74. A(C   4,N   3,C   6)          123.3520         0.300311   
     75. A(C   2,N   3,C   7)          131.7781         0.220227   
     76. A(C   4,N   3,C   7)          100.1807         0.220161   
     77. A(C   2,N   3,C   6)          116.2739         0.300418   
     78. A(C   6,N   3,C   7)           35.9288         0.166279   
     79. A(C   2,N   3,C   4)          120.3230         0.447827   
     80. A(N   3,C   4,H  13)          116.8715         0.359379   
     81. A(C   5,C   4,H  13)          121.5187         0.356517   
     82. A(N   3,C   4,C   5)          121.6092         0.443849   
     83. A(C   0,C   5,H  14)          121.5828         0.356034   
     84. A(C   4,C   5,H  14)          119.7629         0.356954   
     85. A(C   0,C   5,C   4)          118.6526         0.438889   
     86. A(H  15,C   6,O  38)           85.7663         0.250930   
     87. A(C   7,C   6,O  38)           83.6342         0.281614   
     88. A(C   7,C   6,H  15)          115.4815         0.334517   
     89. A(H  15,C   6,C  19)          120.3311         0.329520   
     90. A(N   3,C   6,C   7)           93.4789         0.279682   
     91. A(N   3,C   6,C  19)           95.6190         0.275801   
     92. A(C  19,C   6,O  38)           93.0014         0.277693   
     93. A(N   3,C   6,O  38)          171.0728         0.214764   
     94. A(N   3,C   6,H  15)           87.8776         0.249306   
     95. A(C   7,C   6,C  19)          123.6490         0.375095   
     96. A(C   6,C   7,O   8)          123.7316         0.447253   
     97. A(C   6,C   7,O   9)          111.6246         0.413248   
     98. A(O   8,C   7,O   9)          124.6137         0.486764   
     99. A(N   3,C   7,O   9)          108.5141         0.220410   
    100. A(N   3,C   7,O   8)          104.8599         0.234191   
    101. A(N   3,C   7,C   6)           50.5922         0.207356   
    102. A(C   7,O   9,C  10)          116.0068         0.419347   
    103. A(H  16,C  10,H  17)          109.7455         0.290821   
    104. A(O   9,C  10,H  16)          110.2659         0.336337   
    105. A(O   9,C  10,H  17)          110.1025         0.336346   
    106. A(H  17,C  10,H  39)          110.4935         0.291396   
    107. A(H  16,C  10,H  39)          110.5282         0.291389   
    108. A(O   9,C  10,H  39)          105.6412         0.337042   
    109. A(C  19,C  18,N  28)          114.6903         0.417119   
    110. A(N  28,C  18,C  41)          121.6122         0.436616   
    111. A(C  19,C  18,C  41)          123.6923         0.395814   
    112. A(C  18,C  19,C  20)          112.0073         0.374483   
    113. A(C   6,C  19,C  20)          110.4820         0.369845   
    114. A(C   6,C  19,C  18)          109.9877         0.373900   
    115. A(C  20,C  19,H  30)          108.5825         0.327173   
    116. A(C  18,C  19,H  30)          107.6857         0.330612   
    117. A(C   6,C  19,H  30)          107.9598         0.326687   
    118. A(C  19,C  20,C  21)          119.9961         0.402037   
    119. A(C  21,C  20,C  25)          118.8136         0.433373   
    120. A(C  19,C  20,C  25)          121.1885         0.398590   
    121. A(C  20,C  21,C  22)          121.4869         0.437063   
    122. A(C  22,C  21,H  31)          119.9289         0.354978   
    123. A(C  20,C  21,H  31)          118.5842         0.355088   
    124. A(C  21,C  22,C  23)          119.1222         0.437284   
    125. A(C  23,C  22,H  32)          120.5970         0.355751   
    126. A(C  21,C  22,H  32)          120.2807         0.355472   
    127. A(C  22,C  23,C  24)          120.5732         0.437105   
    128. A(C  24,C  23,H  33)          119.1361         0.355151   
    129. A(C  22,C  23,H  33)          120.2904         0.355566   
    130. A(C  25,C  24,H  34)          120.5005         0.354755   
    131. A(C  23,C  24,H  34)          119.6186         0.355718   
    132. A(C  23,C  24,C  25)          119.8808         0.435308   
    133. A(C  24,C  25,O  26)          123.4693         0.434163   
    134. A(C  20,C  25,O  26)          116.4098         0.431917   
    135. A(C  20,C  25,C  24)          120.1201         0.431812   
    136. A(C  25,O  26,C  27)          118.4532         0.416924   
    137. A(H  36,C  27,H  37)          109.5109         0.290554   
    138. A(H  35,C  27,H  37)          109.5445         0.289628   
    139. A(O  26,C  27,H  37)          111.1824         0.338957   
    140. A(H  35,C  27,H  36)          109.4600         0.290577   
    141. A(O  26,C  27,H  36)          105.9913         0.340139   
    142. A(O  26,C  27,H  35)          111.0785         0.338986   
    143. A(O  29,N  28,O  38)          117.0906         0.440839   
    144. A(C  18,N  28,O  38)          116.5813         0.440947   
    145. A(C  18,N  28,O  29)          126.3253         0.460641   
    146. A(C   6,O  38,N  28)          102.5837         0.294739   
    147. A(H  42,C  41,C  43)          121.3023         0.362726   
    148. A(C  18,C  41,C  43)          122.5307         0.434060   
    149. A(C  18,C  41,H  42)          116.1663         0.346849   
    150. A(H  44,C  43,N  45)          113.2833         0.352738   
    151. A(C  41,C  43,N  45)          126.6191         0.442954   
    152. A(C  41,C  43,H  44)          120.0831         0.361942   
    153. A(C  46,N  45,C  50)          116.5588         0.386379   
    154. A(C  43,N  45,C  50)          119.3427         0.408658   
    155. A(C  43,N  45,C  46)          118.3060         0.407181   
    156. A(H  48,C  46,H  49)          108.6791         0.290429   
    157. A(H  47,C  46,H  49)          108.3363         0.289258   
    158. A(N  45,C  46,H  49)          109.5703         0.333263   
    159. A(H  47,C  46,H  48)          108.3020         0.289123   
    160. A(N  45,C  46,H  48)          109.8358         0.333098   
    161. A(N  45,C  46,H  47)          112.0427         0.331679   
    162. A(H  52,C  50,H  53)          108.1211         0.288870   
    163. A(H  51,C  50,H  53)          108.5311         0.290505   
    164. A(N  45,C  50,H  53)          110.2529         0.334109   
    165. A(H  51,C  50,H  52)          108.6264         0.289278   
    166. A(N  45,C  50,H  52)          112.0906         0.332617   
    167. A(N  45,C  50,H  51)          109.1395         0.334611   
    168. D(C   2,C   1,C   0,H  11)   -179.9367         0.027837   
    169. D(C   2,C   1,C   0,C   5)     -0.0124         0.027837   
    170. D(H  40,C   1,C   0,C   5)    179.8690         0.027837   
    171. D(H  40,C   1,C   0,H  11)     -0.0552         0.027837   
    172. D(N   3,C   2,C   1,H  40)   -179.4931         0.031329   
    173. D(N   3,C   2,C   1,C   0)      0.3905         0.031329   
    174. D(H  12,C   2,C   1,C   0)    179.8570         0.031329   
    175. D(H  12,C   2,C   1,H  40)     -0.0267         0.031329   
    176. D(C   7,N   3,C   2,H  12)     37.3856         0.054064   
    177. D(C   6,N   3,C   2,C   1)    177.2213         0.054064   
    178. D(C   4,N   3,C   2,C   1)     -0.2663         0.054064   
    179. D(C   4,N   3,C   2,H  12)   -179.7570         0.054064   
    180. D(C   6,N   3,C   2,H  12)     -2.2694         0.054064   
    181. D(C   7,N   3,C   2,C   1)   -143.1237         0.054064   
    182. D(C   5,C   4,N   3,C   2)     -0.2447         0.050747   
    183. D(H  13,C   4,N   3,C   2)    179.4765         0.050747   
    184. D(C   5,C   4,N   3,C   7)    152.5310         0.050747   
    185. D(H  13,C   4,N   3,C   6)      2.1737         0.050747   
    186. D(C   5,C   4,N   3,C   6)   -177.5475         0.050747   
    187. D(H  13,C   4,N   3,C   7)    -27.7479         0.050747   
    188. D(H  14,C   5,C   0,C   1)   -179.9931         0.027936   
    189. D(C   0,C   5,C   4,N   3)      0.6094         0.028857   
    190. D(H  14,C   5,C   0,H  11)     -0.0689         0.027936   
    191. D(H  14,C   5,C   4,H  13)      0.4374         0.028857   
    192. D(H  14,C   5,C   4,N   3)   -179.8544         0.028857   
    193. D(C   4,C   5,C   0,H  11)    179.4585         0.027936   
    194. D(C   4,C   5,C   0,C   1)     -0.4658         0.027936   
    195. D(C   0,C   5,C   4,H  13)   -179.0988         0.028857   
    196. D(H  15,C   6,N   3,C   2)     10.3952         0.001875   
    197. D(C   7,C   6,N   3,C   4)    -56.7934         0.001875   
    198. D(C   7,C   6,N   3,C   2)    125.8029         0.001875   
    199. D(O  38,C   6,N   3,C   2)     54.9990         0.001875   
    200. D(O  38,C   6,N   3,C   4)   -127.5973         0.001875   
    201. D(C  19,C   6,N   3,C   7)    124.3182         0.001875   
    202. D(C  19,C   6,N   3,C   4)     67.5248         0.001875   
    203. D(C  19,C   6,N   3,C   2)   -109.8789         0.001875   
    204. D(H  15,C   6,N   3,C   7)   -115.4077         0.001875   
    205. D(H  15,C   6,N   3,C   4)   -172.2011         0.001875   
    206. D(O  38,C   6,N   3,C   7)    -70.8039         0.001875   
    207. D(N   3,C   7,C   6,O  38)    171.5202         0.015447   
    208. D(N   3,C   7,C   6,C  19)    -99.1084         0.015447   
    209. D(N   3,C   7,C   6,H  15)     89.3051         0.015447   
    210. D(O   9,C   7,C   6,O  38)    -91.7971         0.015447   
    211. D(O   9,C   7,C   6,C  19)     -2.4256         0.015447   
    212. D(O   9,C   7,C   6,H  15)   -174.0121         0.015447   
    213. D(O   8,C   7,C   6,N   3)    -81.4016         0.015447   
    214. D(O   8,C   7,C   6,O  38)     90.1186         0.015447   
    215. D(O   8,C   7,C   6,C  19)    179.4900         0.015447   
    216. D(O   8,C   7,C   6,H  15)      7.9035         0.015447   
    217. D(O   9,C   7,N   3,C   6)   -103.1708         0.001506   
    218. D(O   9,C   7,N   3,C   4)     31.5875         0.001506   
    219. D(O   9,C   7,N   3,C   2)    179.6135         0.001506   
    220. D(O   8,C   7,N   3,C   6)    121.7063         0.001506   
    221. D(O   9,C   7,C   6,N   3)     96.6828         0.015447   
    222. D(O   8,C   7,N   3,C   4)   -103.5355         0.001506   
    223. D(O   8,C   7,N   3,C   2)     44.4905         0.001506   
    224. D(C   6,C   7,N   3,C   4)    134.7583         0.001506   
    225. D(C   6,C   7,N   3,C   2)    -77.2157         0.001506   
    226. D(C  10,O   9,C   7,N   3)   -127.4148         0.041341   
    227. D(C  10,O   9,C   7,O   8)     -3.3764         0.041341   
    228. D(C  10,O   9,C   7,C   6)    178.5593         0.041341   
    229. D(H  17,C  10,O   9,C   7)    -60.1908         0.018407   
    230. D(H  16,C  10,O   9,C   7)     61.0503         0.018407   
    231. D(H  39,C  10,O   9,C   7)   -179.5065         0.018407   
    232. D(H  30,C  19,C  18,C  41)     49.1385         0.013105   
    233. D(H  30,C  19,C  18,N  28)   -131.6919         0.013105   
    234. D(C  20,C  19,C  18,C  41)    -70.1787         0.013105   
    235. D(C   6,C  19,C  18,C  41)    166.5494         0.013105   
    236. D(C   6,C  19,C  18,N  28)    -14.2809         0.013105   
    237. D(H  30,C  19,C   6,N   3)    -49.2345         0.012931   
    238. D(H  30,C  19,C   6,O  38)    133.0888         0.012931   
    239. D(H  30,C  19,C   6,H  15)   -140.0624         0.012931   
    240. D(H  30,C  19,C   6,C   7)     48.7402         0.012931   
    241. D(C  20,C  19,C   6,N   3)     69.3645         0.012931   
    242. D(C  20,C  19,C   6,O  38)   -108.3122         0.012931   
    243. D(C  20,C  19,C   6,H  15)    -21.4634         0.012931   
    244. D(C  20,C  19,C   6,C   7)    167.3392         0.012931   
    245. D(C  20,C  19,C  18,N  28)    108.9910         0.013105   
    246. D(C  18,C  19,C   6,N   3)   -166.4749         0.012931   
    247. D(C  18,C  19,C   6,O  38)     15.8484         0.012931   
    248. D(C  18,C  19,C   6,H  15)    102.6971         0.012931   
    249. D(C  18,C  19,C   6,C   7)    -68.5003         0.012931   
    250. D(C  25,C  20,C  19,H  30)      4.0562         0.011602   
    251. D(C  25,C  20,C  19,C  18)    122.8446         0.011602   
    252. D(C  25,C  20,C  19,C   6)   -114.1627         0.011602   
    253. D(C  21,C  20,C  19,H  30)   -176.4449         0.011602   
    254. D(C  21,C  20,C  19,C  18)    -57.6565         0.011602   
    255. D(C  21,C  20,C  19,C   6)     65.3362         0.011602   
    256. D(H  31,C  21,C  20,C  25)   -179.3804         0.027755   
    257. D(H  31,C  21,C  20,C  19)      1.1088         0.027755   
    258. D(C  22,C  21,C  20,C  25)      0.6723         0.027755   
    259. D(C  22,C  21,C  20,C  19)   -178.8385         0.027755   
    260. D(H  32,C  22,C  21,H  31)     -0.1816         0.027648   
    261. D(H  32,C  22,C  21,C  20)    179.7650         0.027648   
    262. D(C  23,C  22,C  21,H  31)    179.6867         0.027648   
    263. D(C  23,C  22,C  21,C  20)     -0.3667         0.027648   
    264. D(H  33,C  23,C  22,H  32)     -0.0484         0.027921   
    265. D(H  33,C  23,C  22,C  21)   -179.9162         0.027921   
    266. D(C  24,C  23,C  22,H  32)    179.7418         0.027921   
    267. D(C  24,C  23,C  22,C  21)     -0.1260         0.027921   
    268. D(H  34,C  24,C  23,H  33)      0.1655         0.027515   
    269. D(H  34,C  24,C  23,C  22)   -179.6271         0.027515   
    270. D(C  25,C  24,C  23,H  33)   -179.9106         0.027515   
    271. D(C  25,C  24,C  23,C  22)      0.2968         0.027515   
    272. D(O  26,C  25,C  24,H  34)      0.2719         0.026596   
    273. D(O  26,C  25,C  24,C  23)   -179.6513         0.026596   
    274. D(C  20,C  25,C  24,H  34)    179.9402         0.026596   
    275. D(C  20,C  25,C  24,C  23)      0.0170         0.026596   
    276. D(O  26,C  25,C  20,C  21)    179.1992         0.025022   
    277. D(O  26,C  25,C  20,C  19)     -1.2961         0.025022   
    278. D(C  24,C  25,C  20,C  21)     -0.4919         0.025022   
    279. D(C  24,C  25,C  20,C  19)    179.0128         0.025022   
    280. D(C  27,O  26,C  25,C  24)     -2.1911         0.030593   
    281. D(C  27,O  26,C  25,C  20)    178.1292         0.030593   
    282. D(H  37,C  27,O  26,C  25)     62.7440         0.020822   
    283. D(H  36,C  27,O  26,C  25)   -178.3311         0.020822   
    284. D(H  35,C  27,O  26,C  25)    -59.5234         0.020822   
    285. D(O  38,N  28,C  18,C  41)   -179.9730         0.048377   
    286. D(O  38,N  28,C  18,C  19)      0.8382         0.048377   
    287. D(O  29,N  28,C  18,C  41)     -0.5927         0.048377   
    288. D(O  29,N  28,C  18,C  19)   -179.7814         0.048377   
    289. D(C   6,O  38,N  28,O  29)   -169.8836         0.032872   
    290. D(C   6,O  38,N  28,C  18)      9.5556         0.032872   
    291. D(N  28,O  38,C   6,N   3)    179.4611         0.001817   
    292. D(N  28,O  38,C   6,C  19)    -15.6078         0.001817   
    293. D(N  28,O  38,C   6,H  15)   -135.8192         0.001817   
    294. D(N  28,O  38,C   6,C   7)    107.9281         0.001817   
    295. D(C  43,C  41,C  18,N  28)    177.1690         0.020177   
    296. D(C  43,C  41,C  18,C  19)     -3.7169         0.020177   
    297. D(H  42,C  41,C  18,N  28)     -3.1304         0.020177   
    298. D(H  42,C  41,C  18,C  19)    175.9837         0.020177   
    299. D(N  45,C  43,C  41,H  42)      3.2498         0.035314   
    300. D(N  45,C  43,C  41,C  18)   -177.0647         0.035314   
    301. D(H  44,C  43,C  41,H  42)   -178.2299         0.035314   
    302. D(H  44,C  43,C  41,C  18)      1.4556         0.035314   
    303. D(C  50,N  45,C  43,H  44)    175.1177         0.032284   
    304. D(C  50,N  45,C  43,C  41)     -6.2761         0.032284   
    305. D(C  46,N  45,C  43,H  44)     22.8233         0.032284   
    306. D(C  46,N  45,C  43,C  41)   -158.5706         0.032284   
    307. D(H  49,C  46,N  45,C  50)    173.2535         0.017924   
    308. D(H  49,C  46,N  45,C  43)    -33.6888         0.017924   
    309. D(H  48,C  46,N  45,C  50)     53.9404         0.017924   
    310. D(H  48,C  46,N  45,C  43)   -153.0018         0.017924   
    311. D(H  47,C  46,N  45,C  50)    -66.4715         0.017924   
    312. D(H  47,C  46,N  45,C  43)     86.5863         0.017924   
    313. D(H  53,C  50,N  45,C  46)   -154.2612         0.018688   
    314. D(H  53,C  50,N  45,C  43)     52.9728         0.018688   
    315. D(H  52,C  50,N  45,C  46)     85.2384         0.018688   
    316. D(H  52,C  50,N  45,C  43)    -67.5276         0.018688   
    317. D(H  51,C  50,N  45,C  46)    -35.1412         0.018688   
    318. D(H  51,C  50,N  45,C  43)    172.0928         0.018688   
    -----------------------------------------------------------------

Number of atoms                         .... 54
Number of degrees of freedom            .... 318

         *************************************************************
         *                GEOMETRY OPTIMIZATION CYCLE   1            *
         *************************************************************
---------------------------------
CARTESIAN COORDINATES (ANGSTROEM)
---------------------------------
  C     -3.888197    1.432408    0.663272
  C     -3.627844    1.268580   -0.688441
  C     -2.312673    1.189292   -1.105015
  N     -1.304098    1.258570   -0.243349
  C     -1.540483    1.412962    1.055264
  C     -2.826600    1.510945    1.550594
  C      0.498785    1.043984   -0.995314
  C      0.993648    2.325057   -0.411099
  O      0.796927    3.407648   -0.906559
  O      1.635400    2.125123    0.732680
  C      2.178407    3.290437    1.359032
  H     -4.908684    1.496965    1.021414
  H     -2.054945    1.058939   -2.150526
  H     -0.676717    1.453830    1.709078
  H     -2.984614    1.638557    2.613483
  H      0.056463    1.121477   -1.973731
  H      1.381882    3.992876    1.604775
  H      2.900548    3.769210    0.697623
  C      2.210407   -0.660462   -0.482932
  C      0.756713   -0.317114   -0.376717
  C     -0.123264   -1.367800   -1.021721
  C      0.048861   -1.690213   -2.359338
  C     -0.755066   -2.630187   -2.987289
  C     -1.746954   -3.265200   -2.256808
  C     -1.934175   -2.968697   -0.914080
  C     -1.124608   -2.021288   -0.293599
  O     -1.238846   -1.681936    1.009924
  C     -2.262098   -2.285959    1.776037
  N      2.889774    0.090066   -1.310196
  O      4.126345   -0.008601   -1.570866
  H      0.506883   -0.257557    0.683411
  H      0.833090   -1.188614   -2.917751
  H     -0.605862   -2.864377   -4.034425
  H     -2.385242   -4.003944   -2.728242
  H     -2.709004   -3.477969   -0.357177
  H     -3.248109   -2.069307    1.355681
  H     -2.188474   -1.850872    2.770549
  H     -2.121345   -3.368685    1.839676
  O      2.214461    1.059026   -1.928387
  H      2.666711    2.936564    2.262996
  H     -4.426713    1.200475   -1.415159
  C      2.826658   -1.728933    0.236723
  H      3.870319   -1.912137    0.017819
  C      2.153418   -2.483032    1.140770
  H      1.099256   -2.300541    1.324156
  N      2.667387   -3.477426    1.908761
  C      1.760882   -4.463466    2.449325
  H      1.584928   -5.290341    1.747663
  H      2.171804   -4.878165    3.371728
  H      0.802160   -3.994140    2.673981
  C      4.026549   -3.899992    1.698288
  H      4.309872   -4.597660    2.486057
  H      4.159646   -4.395494    0.725756
  H      4.699866   -3.040855    1.736795

----------------------------
CARTESIAN COORDINATES (A.U.)
----------------------------
  NO LB      ZA    FRAG     MASS         X           Y           Z
   0 C     6.0000    0    12.011   -7.347627    2.706859    1.253402
   1 C     6.0000    0    12.011   -6.855632    2.397269   -1.300965
   2 C     6.0000    0    12.011   -4.370319    2.247436   -2.088176
   3 N     7.0000    0    14.007   -2.464388    2.378353   -0.459863
   4 C     6.0000    0    12.011   -2.911091    2.670111    1.994160
   5 C     6.0000    0    12.011   -5.341500    2.855272    2.930198
   6 C     6.0000    0    12.011    0.942567    1.972844   -1.880871
   7 C     6.0000    0    12.011    1.877723    4.393721   -0.776865
   8 O     8.0000    0    15.999    1.505974    6.439521   -1.713148
   9 O     8.0000    0    15.999    3.090458    4.015900    1.384565
  10 C     6.0000    0    12.011    4.116593    6.218025    2.568198
  11 H     1.0000    0     1.008   -9.276068    2.828854    1.930193
  12 H     1.0000    0     1.008   -3.883283    2.001105   -4.063905
  13 H     1.0000    0     1.008   -1.278810    2.747341    3.229689
  14 H     1.0000    0     1.008   -5.640103    3.096424    4.938767
  15 H     1.0000    0     1.008    0.106700    2.119284   -3.729811
  16 H     1.0000    0     1.008    2.611379    7.545442    3.032585
  17 H     1.0000    0     1.008    5.481241    7.122775    1.318316
  18 C     6.0000    0    12.011    4.177064   -1.248092   -0.912609
  19 C     6.0000    0    12.011    1.429980   -0.599259   -0.711892
  20 C     6.0000    0    12.011   -0.232935   -2.584767   -1.930773
  21 C     6.0000    0    12.011    0.092334   -3.194040   -4.458503
  22 C     6.0000    0    12.011   -1.426868   -4.970333   -5.645158
  23 C     6.0000    0    12.011   -3.301265   -6.170334   -4.264749
  24 C     6.0000    0    12.011   -3.655061   -5.610024   -1.727361
  25 C     6.0000    0    12.011   -2.125201   -3.819681   -0.554822
  26 O     8.0000    0    15.999   -2.341080   -3.178398    1.908480
  27 C     6.0000    0    12.011   -4.274746   -4.319836    3.356224
  28 N     7.0000    0    14.007    5.460881    0.170200   -2.475912
  29 O     8.0000    0    15.999    7.797662   -0.016254   -2.968507
  30 H     1.0000    0     1.008    0.957870   -0.486712    1.291460
  31 H     1.0000    0     1.008    1.574312   -2.246155   -5.513750
  32 H     1.0000    0     1.008   -1.144913   -5.412888   -7.623958
  33 H     1.0000    0     1.008   -4.507454   -7.566358   -5.155630
  34 H     1.0000    0     1.008   -5.119276   -6.572409   -0.674967
  35 H     1.0000    0     1.008   -6.138036   -3.910424    2.561866
  36 H     1.0000    0     1.008   -4.135617   -3.497641    5.235579
  37 H     1.0000    0     1.008   -4.008761   -6.365892    3.476484
  38 O     8.0000    0    15.999    4.184725    2.001269   -3.644123
  39 H     1.0000    0     1.008    5.039353    5.549302    4.276443
  40 H     1.0000    0     1.008   -8.365275    2.268569   -2.674263
  41 C     6.0000    0    12.011    5.341609   -3.267210    0.447342
  42 H     1.0000    0     1.008    7.313843   -3.613415    0.033673
  43 C     6.0000    0    12.011    4.069370   -4.692250    2.155743
  44 H     1.0000    0     1.008    2.077293   -4.347392    2.502292
  45 N     7.0000    0    14.007    5.040631   -6.571383    3.607036
  46 C     6.0000    0    12.011    3.327585   -8.434728    4.628553
  47 H     1.0000    0     1.008    2.995080   -9.997296    3.302604
  48 H     1.0000    0     1.008    4.104115   -9.218396    6.371643
  49 H     1.0000    0     1.008    1.515863   -7.547831    5.053092
  50 C     6.0000    0    12.011    7.609075   -7.369917    3.209299
  51 H     1.0000    0     1.008    8.144478   -8.688318    4.697967
  52 H     1.0000    0     1.008    7.860592   -8.306280    1.371480
  53 H     1.0000    0     1.008    8.881460   -5.746383    3.282067

--------------------------------
INTERNAL COORDINATES (ANGSTROEM)
--------------------------------
 C      0   0   0     0.000000000000     0.00000000     0.00000000
 C      1   0   0     1.386272459714     0.00000000     0.00000000
 C      2   1   0     1.381844869608   118.65105173     0.00000000
 N      3   2   1     1.328341547745   121.60730913     0.39053838
 C      4   3   2     1.328950895127   120.32299671   359.73369128
 C      5   4   3     1.381683543681   121.60919873   359.75533996
 C      4   3   2     1.965168090599   116.27391679   177.22126990
 C      7   4   3     1.492429089211    93.47891804   125.80290652
 O      8   7   4     1.206724093039   123.73158632   278.59840962
 O      8   7   4     1.326668622792   111.62461003    96.68276435
 C     10   8   7     1.430080469257   116.00677608   178.55934990
 H      1   2   3     1.083432976968   120.41500948   180.06328919
 H      3   2   1     1.084669939527   121.57534344   179.85700125
 H      5   4   3     1.084082396673   116.87148683   179.47648503
 H      6   5   4     1.082121191485   119.76286619   180.14564976
 H      7   4   3     1.076547139062    87.87763896    10.39521116
 H     11  10   8     1.090074422411   110.26587148    61.05027884
 H     11  10   8     1.090033519985   110.10253097   299.80924247
 C      7   4   3     2.469275471008   129.19029190   240.21876960
 C     19   7   4     1.497463095026    35.26835012    17.47553873
 C     20  19   7     1.514704839611   112.00733172   123.27188567
 C     21  20  19     1.386649341717   119.99605845   302.34349267
 C     22  21  20     1.387145342207   121.48686912   181.16153405
 C     23  22  21     1.385888092912   119.12217771   359.63325205
 C     24  23  22     1.387762304515   120.57319678   359.87397459
 C     25  24  23     1.392113218144   119.88082060     0.29679105
 O     26  25  24     1.351807054308   123.46934580   180.34867799
 C     27  26  25     1.413795448006   118.45321128   357.80887692
 N     19   7   4     1.307362813135    80.36542368   184.33551790
 O     29  19   7     1.267592940904   126.32529575   171.91195614
 H     20  19   7     1.090794866844   107.68569318   242.58902922
 H     22  21  20     1.085560573994   118.58418376     1.10882685
 H     23  22  21     1.083328478446   120.28068820   179.76495337
 H     24  23  22     1.084160636085   120.29042274   180.08375875
 H     25  24  23     1.081600157468   119.61862249   180.37288448
 H     28  27  26     1.093551529632   111.07850105   300.47657472
 H     28  27  26     1.088014388273   105.99134057   181.66892635
 H     28  27  26     1.093689590517   111.18239729    62.74402707
 O     29  19   7     1.333075857575   116.58134901   352.53162593
 H     11  10   8     1.086654411412   105.64122064   180.49353190
 H      2   1   3     1.082103979158   121.57566275   179.88146568
 C     19   7   4     1.428040227678   156.94895430   347.85338100
 H     42  19   7     1.081993969370   116.16634752   196.04439746
 C     42  19   7     1.356177856186   122.53068069    16.34380449
 H     44  42  19     1.085445029617   120.08313779     1.45558291
 N     44  42  19     1.357495390886   126.61914899   182.93528167
 C     46  44  42     1.444380709758   118.30601684   201.42942268
 H     47  46  44     1.098640813908   112.04265652    86.58625338
 H     47  46  44     1.091631551896   109.83576923   206.99821426
 H     47  46  44     1.090818539399   109.57027405   326.31122701
 C     46  44  42     1.438812791967   119.34272888   353.72385214
 H     51  46  44     1.089767203541   109.13946194   172.09281212
 H     51  46  44     1.099570613666   112.09057766   292.47241100
 H     51  46  44     1.092224773711   110.25290455    52.97282531

---------------------------
INTERNAL COORDINATES (A.U.)
---------------------------
 C      0   0   0     0.000000000000     0.00000000     0.00000000
 C      1   0   0     2.619675295857     0.00000000     0.00000000
 C      2   1   0     2.611308363123   118.65105173     0.00000000
 N      3   2   1     2.510201737547   121.60730913     0.39053838
 C      4   3   2     2.511353237219   120.32299671   359.73369128
 C      5   4   3     2.611003501302   121.60919873   359.75533996
 C      4   3   2     3.713629498354   116.27391679   177.22126990
 C      7   4   3     2.820282252906    93.47891804   125.80290652
 O      8   7   4     2.280378055049   123.73158632   278.59840962
 O      8   7   4     2.507040367543   111.62461003    96.68276435
 C     10   8   7     2.702460436364   116.00677608   178.55934990
 H      1   2   3     2.047391610929   120.41500948   180.06328919
 H      3   2   1     2.049729131403   121.57534344   179.85700125
 H      5   4   3     2.048618836317   116.87148683   179.47648503
 H      6   5   4     2.044912695619   119.76286619   180.14564976
 H      7   4   3     2.034379263083    87.87763896    10.39521116
 H     11  10   8     2.059942123949   110.26587148    61.05027884
 H     11  10   8     2.059864829566   110.10253097   299.80924247
 C      7   4   3     4.666254389415   129.19029190   240.21876960
 C     19   7   4     2.829795145253    35.26835012    17.47553873
 C     20  19   7     2.862377320590   112.00733172   123.27188567
 C     21  20  19     2.620387499627   119.99605845   302.34349267
 C     22  21  20     2.621324804715   121.48686912   181.16153405
 C     23  22  21     2.618948947865   119.12217771   359.63325205
 C     24  23  22     2.622490694514   120.57319678   359.87397459
 C     25  24  23     2.630712729704   119.88082060     0.29679105
 O     26  25  24     2.554545118545   123.46934580   180.34867799
 C     27  26  25     2.671686206116   118.45321128   357.80887692
 N     19   7   4     2.470557674499    80.36542368   184.33551790
 O     29  19   7     2.395403507601   126.32529575   171.91195614
 H     20  19   7     2.061303566622   107.68569318   242.58902922
 H     22  21  20     2.051412186632   118.58418376     1.10882685
 H     23  22  21     2.047194137340   120.28068820   179.76495337
 H     24  23  22     2.048766687378   120.29042274   180.08375875
 H     25  24  23     2.043928084020   119.61862249   180.37288448
 H     28  27  26     2.066512904336   111.07850105   300.47657472
 H     28  27  26     2.056049223602   105.99134057   181.66892635
 H     28  27  26     2.066773801598   111.18239729    62.74402707
 O     29  19   7     2.519148286559   116.58134901   352.53162593
 H     11  10   8     2.053479239786   105.64122064   180.49353190
 H      2   1   3     2.044880169035   121.57566275   179.88146568
 C     19   7   4     2.698604938534   156.94895430   347.85338100
 H     42  19   7     2.044672280664   116.16634752   196.04439746
 C     42  19   7     2.562804737081   122.53068069    16.34380449
 H     44  42  19     2.051193839403   120.08313779     1.45558291
 N     44  42  19     2.565294516836   126.61914899   182.93528167
 C     46  44  42     2.729483974561   118.30601684   201.42942268
 H     47  46  44     2.076130257835   112.04265652    86.58625338
 H     47  46  44     2.062884672230   109.83576923   206.99821426
 H     47  46  44     2.061348301268   109.57027405   326.31122701
 C     46  44  42     2.718962134801   119.34272888   353.72385214
 H     51  46  44     2.059361564422   109.13946194   172.09281212
 H     51  46  44     2.077887324736   112.09057766   292.47241100
 H     51  46  44     2.064005698997   110.25290455    52.97282531

---------------------
BASIS SET INFORMATION
---------------------
There are 4 groups of distinct atoms

 Group   1 Type C   : 11s6p2d1f contracted to 5s3p2d1f pattern {62111/411/11/1}
 Group   2 Type N   : 11s6p2d1f contracted to 5s3p2d1f pattern {62111/411/11/1}
 Group   3 Type O   : 11s6p2d1f contracted to 5s3p2d1f pattern {62111/411/11/1}
 Group   4 Type H   : 5s1p contracted to 3s1p pattern {311/1}

Atom   0C    basis set group =>   1
Atom   1C    basis set group =>   1
Atom   2C    basis set group =>   1
Atom   3N    basis set group =>   2
Atom   4C    basis set group =>   1
Atom   5C    basis set group =>   1
Atom   6C    basis set group =>   1
Atom   7C    basis set group =>   1
Atom   8O    basis set group =>   3
Atom   9O    basis set group =>   3
Atom  10C    basis set group =>   1
Atom  11H    basis set group =>   4
Atom  12H    basis set group =>   4
Atom  13H    basis set group =>   4
Atom  14H    basis set group =>   4
Atom  15H    basis set group =>   4
Atom  16H    basis set group =>   4
Atom  17H    basis set group =>   4
Atom  18C    basis set group =>   1
Atom  19C    basis set group =>   1
Atom  20C    basis set group =>   1
Atom  21C    basis set group =>   1
Atom  22C    basis set group =>   1
Atom  23C    basis set group =>   1
Atom  24C    basis set group =>   1
Atom  25C    basis set group =>   1
Atom  26O    basis set group =>   3
Atom  27C    basis set group =>   1
Atom  28N    basis set group =>   2
Atom  29O    basis set group =>   3
Atom  30H    basis set group =>   4
Atom  31H    basis set group =>   4
Atom  32H    basis set group =>   4
Atom  33H    basis set group =>   4
Atom  34H    basis set group =>   4
Atom  35H    basis set group =>   4
Atom  36H    basis set group =>   4
Atom  37H    basis set group =>   4
Atom  38O    basis set group =>   3
Atom  39H    basis set group =>   4
Atom  40H    basis set group =>   4
Atom  41C    basis set group =>   1
Atom  42H    basis set group =>   4
Atom  43C    basis set group =>   1
Atom  44H    basis set group =>   4
Atom  45N    basis set group =>   2
Atom  46C    basis set group =>   1
Atom  47H    basis set group =>   4
Atom  48H    basis set group =>   4
Atom  49H    basis set group =>   4
Atom  50C    basis set group =>   1
Atom  51H    basis set group =>   4
Atom  52H    basis set group =>   4
Atom  53H    basis set group =>   4
---------------------------------
AUXILIARY/J BASIS SET INFORMATION
---------------------------------
There are 4 groups of distinct atoms

 Group   1 Type C   : 12s5p4d2f1g contracted to 6s4p3d1f1g pattern {711111/2111/211/2/1}
 Group   2 Type N   : 12s5p4d2f1g contracted to 6s4p3d1f1g pattern {711111/2111/211/2/1}
 Group   3 Type O   : 12s5p4d2f1g contracted to 6s4p3d1f1g pattern {711111/2111/211/2/1}
 Group   4 Type H   : 5s2p1d contracted to 3s1p1d pattern {311/2/1}

Atom   0C    basis set group =>   1
Atom   1C    basis set group =>   1
Atom   2C    basis set group =>   1
Atom   3N    basis set group =>   2
Atom   4C    basis set group =>   1
Atom   5C    basis set group =>   1
Atom   6C    basis set group =>   1
Atom   7C    basis set group =>   1
Atom   8O    basis set group =>   3
Atom   9O    basis set group =>   3
Atom  10C    basis set group =>   1
Atom  11H    basis set group =>   4
Atom  12H    basis set group =>   4
Atom  13H    basis set group =>   4
Atom  14H    basis set group =>   4
Atom  15H    basis set group =>   4
Atom  16H    basis set group =>   4
Atom  17H    basis set group =>   4
Atom  18C    basis set group =>   1
Atom  19C    basis set group =>   1
Atom  20C    basis set group =>   1
Atom  21C    basis set group =>   1
Atom  22C    basis set group =>   1
Atom  23C    basis set group =>   1
Atom  24C    basis set group =>   1
Atom  25C    basis set group =>   1
Atom  26O    basis set group =>   3
Atom  27C    basis set group =>   1
Atom  28N    basis set group =>   2
Atom  29O    basis set group =>   3
Atom  30H    basis set group =>   4
Atom  31H    basis set group =>   4
Atom  32H    basis set group =>   4
Atom  33H    basis set group =>   4
Atom  34H    basis set group =>   4
Atom  35H    basis set group =>   4
Atom  36H    basis set group =>   4
Atom  37H    basis set group =>   4
Atom  38O    basis set group =>   3
Atom  39H    basis set group =>   4
Atom  40H    basis set group =>   4
Atom  41C    basis set group =>   1
Atom  42H    basis set group =>   4
Atom  43C    basis set group =>   1
Atom  44H    basis set group =>   4
Atom  45N    basis set group =>   2
Atom  46C    basis set group =>   1
Atom  47H    basis set group =>   4
Atom  48H    basis set group =>   4
Atom  49H    basis set group =>   4
Atom  50C    basis set group =>   1
Atom  51H    basis set group =>   4
Atom  52H    basis set group =>   4
Atom  53H    basis set group =>   4


           ************************************************************
           *        Program running with 24 parallel MPI-processes    *
           *              working on a common directory               *
           ************************************************************
------------------------------------------------------------------------------
                           ORCA GTO INTEGRAL CALCULATION
                           -- RI-GTO INTEGRALS CHOSEN --
------------------------------------------------------------------------------
------------------------------------------------------------------------------
                   ___                                                        
                  /   \      - P O W E R E D   B Y -                         
                 /     \                                                     
                 |  |  |   _    _      __       _____    __    __             
                 |  |  |  | |  | |    /  \     |  _  \  |  |  /  |          
                  \  \/   | |  | |   /    \    | | | |  |  | /  /          
                 / \  \   | |__| |  /  /\  \   | |_| |  |  |/  /          
                |  |  |   |  __  | /  /__\  \  |    /   |      \           
                |  |  |   | |  | | |   __   |  |    \   |  |\   \          
                \     /   | |  | | |  |  |  |  | |\  \  |  | \   \       
                 \___/    |_|  |_| |__|  |__|  |_| \__\ |__|  \__/        
                                                                              
                      - O R C A' S   B I G   F R I E N D -                    
                                      &                                       
                       - I N T E G R A L  F E E D E R -                       
                                                                              
 v1 FN, 2020, v2 2021                                                         
------------------------------------------------------------------------------


Reading SHARK input file TS2_CHCHNMe2/TS2_CHCHNMe2.SHARKINP.tmp ... ok
----------------------
SHARK INTEGRAL PACKAGE
----------------------

Number of atoms                             ...     54
Number of basis functions                   ...   1049
Number of shells                            ...    419
Maximum angular momentum                    ...      3
Integral batch strategy                     ... SHARK/LIBINT Hybrid
RI-J (if used) integral strategy            ... SPLIT-RIJ (Revised 2003 algorithm where possible)
Printlevel                                  ...      1
Contraction scheme used                     ... SEGMENTED contraction
Coulomb Range Separation                    ... NOT USED
Exchange Range Separation                   ... NOT USED
Finite Nucleus Model                        ... NOT USED
Auxiliary Coulomb fitting basis             ... AVAILABLE
   # of basis functions in Aux-J            ...   1696
   # of shells in Aux-J                     ...    560
   Maximum angular momentum in Aux-J        ...      4
Auxiliary J/K fitting basis                 ... NOT available
Auxiliary Correlation fitting basis         ... NOT available
Auxiliary 'external' fitting basis          ... NOT available
Integral threshold                          ...     2.500000e-11
Primitive cut-off                           ...     2.500000e-12
Primitive pair pre-selection threshold      ...     2.500000e-12

Calculating pre-screening integrals         ... done (  0.1 sec) Dimension = 419
Organizing shell pair data                  ... done (  6.1 sec)
Shell pair information
Total number of shell pairs                 ...     87990
Shell pairs after pre-screening             ...     60300
Total number of primitive shell pairs       ...    267528
Primitive shell pairs kept                  ...    118212
          la=0 lb=0:  16115 shell pairs
          la=1 lb=0:  17650 shell pairs
          la=1 lb=1:   4837 shell pairs
          la=2 lb=0:   8452 shell pairs
          la=2 lb=1:   4687 shell pairs
          la=2 lb=2:   1159 shell pairs
          la=3 lb=0:   3864 shell pairs
          la=3 lb=1:   2223 shell pairs
          la=3 lb=2:   1054 shell pairs
          la=3 lb=3:    259 shell pairs

Calculating one electron integrals          ... done (  1.7 sec)
Calculating RI/J V-Matrix + Cholesky decomp.... done (  0.7 sec)
Calculating Nuclear repulsion               ... done (  0.0 sec) ENN=   3018.267608437327 Eh

SHARK setup successfully completed in  11.3 seconds

Maximum memory used throughout the entire GTOINT-calculation: 88.8 MB


           ************************************************************
           *        Program running with 24 parallel MPI-processes    *
           *              working on a common directory               *
           ************************************************************
-------------------------------------------------------------------------------
                                 ORCA SCF
-------------------------------------------------------------------------------

------------
SCF SETTINGS
------------
Hamiltonian:
 Density Functional     Method          .... DFT(GTOs)
 Exchange Functional    Exchange        .... PBE
   PBE kappa parameter   XKappa         ....  0.804000
   PBE mue parameter    XMuePBE         ....  0.219520
 Correlation Functional Correlation     .... PBE
   PBE beta parameter  CBetaPBE         ....  0.066725
 LDA part of GGA corr.  LDAOpt          .... PW91-LDA
 Gradients option       PostSCFGGA      .... off
 Hybrid DFT is turned on
   Fraction HF Exchange ScalHFX         ....  0.250000
   Scaling of DF-GGA-X  ScalDFX         ....  0.750000
   Scaling of DF-GGA-C  ScalDFC         ....  1.000000
   Scaling of DF-LDA-C  ScalLDAC        ....  1.000000
   Perturbative correction              ....  0.000000
   Density functional embedding theory  .... OFF
   NL short-range parameter             ....  6.900000
 RI-approximation to the Coulomb term is turned on
   Number of AuxJ basis functions       .... 1696
   RIJ-COSX (HFX calculated with COS-X)).... on


General Settings:
 Integral files         IntName         .... TS2_CHCHNMe2/TS2_CHCHNMe2
 Hartree-Fock type      HFTyp           .... RHF
 Total Charge           Charge          ....    0
 Multiplicity           Mult            ....    1
 Number of Electrons    NEL             ....  212
 Basis Dimension        Dim             .... 1049
 Nuclear Repulsion      ENuc            ....   3018.2676084373 Eh

Convergence Acceleration:
 DIIS                   CNVDIIS         .... on
   Start iteration      DIISMaxIt       ....    12
   Startup error        DIISStart       ....  0.200000
   # of expansion vecs  DIISMaxEq       ....     5
   Bias factor          DIISBfac        ....   1.050
   Max. coefficient     DIISMaxC        ....  10.000
 Trust-Rad. Augm. Hess. CNVTRAH         .... auto
   Auto Start mean grad. ratio tolernc. ....  1.125000
   Auto Start start iteration           ....    20
   Auto Start num. interpolation iter.  ....    10
   Max. Number of Micro iterations      ....    16
   Max. Number of Macro iterations      .... Maxiter - #DIIS iter
   Number of Davidson start vectors     ....     2
   Converg. threshold I  (grad. norm)   ....   1.000e-05
   Converg. threshold II (energy diff.) ....   1.000e-08
   Grad. Scal. Fac. for Micro threshold ....   0.100
   Minimum threshold for Micro iter.    ....   0.010
   NR start threshold (gradient norm)   ....   0.001
   Initial trust radius                 ....   0.400
   Minimum AH scaling param. (alpha)    ....   1.000
   Maximum AH scaling param. (alpha)    .... 1000.000
   Orbital update algorithm             .... Taylor
   White noise on init. David. guess    .... on
   Maximum white noise                  ....   0.010
   Quad. conv. algorithm                .... NR
 SOSCF                  CNVSOSCF        .... on
   Start iteration      SOSCFMaxIt      ....   150
   Startup grad/error   SOSCFStart      ....  0.003300
 Level Shifting         CNVShift        .... on
   Level shift para.    LevelShift      ....    0.2500
   Turn off err/grad.   ShiftErr        ....    0.0010
 Zerner damping         CNVZerner       .... off
 Static damping         CNVDamp         .... on
   Fraction old density DampFac         ....    0.7000
   Max. Damping (<1)    DampMax         ....    0.9800
   Min. Damping (>=0)   DampMin         ....    0.0000
   Turn off err/grad.   DampErr         ....    0.1000
 Fernandez-Rico         CNVRico         .... off

SCF Procedure:
 Maximum # iterations   MaxIter         ....   800
 SCF integral mode      SCFMode         .... Direct
   Integral package                     .... SHARK and LIBINT hybrid scheme
 Reset frequency        DirectResetFreq ....    20
 Integral Threshold     Thresh          ....  2.500e-11 Eh
 Primitive CutOff       TCut            ....  2.500e-12 Eh

Convergence Tolerance:
 Convergence Check Mode ConvCheckMode   .... Total+1el-Energy
 Convergence forced     ConvForced      .... 0
 Energy Change          TolE            ....  1.000e-08 Eh
 1-El. energy change                    ....  1.000e-05 Eh
 Orbital Gradient       TolG            ....  1.000e-05
 Orbital Rotation angle TolX            ....  1.000e-05
 DIIS Error             TolErr          ....  5.000e-07


Diagonalization of the overlap matrix:
Smallest eigenvalue                        ... 5.144e-06
Time for diagonalization                   ...    0.629 sec
Threshold for overlap eigenvalues          ... 1.000e-08
Number of eigenvalues below threshold      ... 0
Time for construction of square roots      ...    0.619 sec
Total time needed                          ...    1.258 sec

Time for model grid setup =    1.260 sec

------------------------------
INITIAL GUESS: MODEL POTENTIAL
------------------------------
Loading Hartree-Fock densities                     ... done
Calculating cut-offs                               ... done
Initializing the effective Hamiltonian             ... done
Setting up the integral package (SHARK)            ... done
Starting the Coulomb interaction                   ... done (   1.0 sec)
Reading the grid                                   ... done
Mapping shells                                     ... done
Starting the XC term evaluation                    ... done (   2.4 sec)
  promolecular density results
     # of electrons  =    211.980735286
     EX              =   -175.260248345
     EC              =     -7.152328209
     EX+EC           =   -182.412576554
Transforming the Hamiltonian                       ... done (   0.3 sec)
Diagonalizing the Hamiltonian                      ... done (   0.5 sec)
Back transforming the eigenvectors                 ... done (   0.4 sec)
Now organizing SCF variables                       ... done
                      ------------------
                      INITIAL GUESS DONE (   7.0 sec)
                      ------------------
-------------------
DFT GRID GENERATION
-------------------

General Integration Accuracy     IntAcc      ... 4.388
Radial Grid Type                 RadialGrid  ... OptM3 with GC (2021)
Angular Grid (max. ang.)         AngularGrid ... 4 (Lebedev-302)
Angular grid pruning method      GridPruning ... 4 (adaptive)
Weight generation scheme         WeightScheme... Becke
Basis function cutoff            BFCut       ... 1.0000e-11
Integration weight cutoff        WCut        ... 1.0000e-14
Angular grids for H and He will be reduced by one unit
Partially contracted basis set               ... off
Rotationally invariant grid construction     ... off

Total number of grid points                  ...   251737
Total number of batches                      ...     3961
Average number of points per batch           ...       63
Average number of grid points per atom       ...     4662
Time for grid setup =    4.106 sec

--------------------
COSX GRID GENERATION
--------------------

GRIDX 1
-------
General Integration Accuracy     IntAcc      ... 3.816
Radial Grid Type                 RadialGrid  ... OptM3 with GC (2021)
Angular Grid (max. ang.)         AngularGrid ... 1 (Lebedev-50)
Angular grid pruning method      GridPruning ... 4 (adaptive)
Weight generation scheme         WeightScheme... Becke
Basis function cutoff            BFCut       ... 1.0000e-11
Integration weight cutoff        WCut        ... 1.0000e-14
Angular grids for H and He will be reduced by one unit
Partially contracted basis set               ... on
Rotationally invariant grid construction     ... off

Total number of grid points                  ...    31957
Total number of batches                      ...      529
Average number of points per batch           ...       60
Average number of grid points per atom       ...      592
UseSFitting                                  ... on

GRIDX 2
-------
General Integration Accuracy     IntAcc      ... 4.020
Radial Grid Type                 RadialGrid  ... OptM3 with GC (2021)
Angular Grid (max. ang.)         AngularGrid ... 2 (Lebedev-110)
Angular grid pruning method      GridPruning ... 4 (adaptive)
Weight generation scheme         WeightScheme... Becke
Basis function cutoff            BFCut       ... 1.0000e-11
Integration weight cutoff        WCut        ... 1.0000e-14
Angular grids for H and He will be reduced by one unit
Partially contracted basis set               ... on
Rotationally invariant grid construction     ... off

Total number of grid points                  ...    68427
Total number of batches                      ...     1095
Average number of points per batch           ...       62
Average number of grid points per atom       ...     1267
UseSFitting                                  ... on

GRIDX 3
-------
General Integration Accuracy     IntAcc      ... 4.338
Radial Grid Type                 RadialGrid  ... OptM3 with GC (2021)
Angular Grid (max. ang.)         AngularGrid ... 3 (Lebedev-194)
Angular grid pruning method      GridPruning ... 4 (adaptive)
Weight generation scheme         WeightScheme... Becke
Basis function cutoff            BFCut       ... 1.0000e-11
Integration weight cutoff        WCut        ... 1.0000e-14
Angular grids for H and He will be reduced by one unit
Partially contracted basis set               ... on
Rotationally invariant grid construction     ... off

Total number of grid points                  ...   149007
Total number of batches                      ...     2356
Average number of points per batch           ...       63
Average number of grid points per atom       ...     2759
UseSFitting                                  ... on

Time for X-Grid setup             =   31.921 sec


--------------------
CPCM SOLVATION MODEL
--------------------
CPCM parameters:
  Epsilon                                         ...      47.2000
  Refrac                                          ...       1.4790
  Rsolv                                           ...       1.3000
  Surface type                                    ... GAUSSIAN VDW
  Epsilon function type                           ...         CPCM
Radii:
 Radius for C  used is    3.8550 Bohr (=   2.0400 Ang.)
 Radius for N  used is    3.5149 Bohr (=   1.8600 Ang.)
 Radius for O  used is    3.4469 Bohr (=   1.8240 Ang.)
 Radius for H  used is    2.4944 Bohr (=   1.3200 Ang.)
Calculating surface                               ...        done! (  0.0s)
GEPOL surface points                              ...         2735
GEPOL Volume                                      ...    3152.2075
GEPOL Surface-area                                ...    1555.0856
Calculating surface distance matrix               ...        done! (  1.1s)
Performing Cholesky decomposition & store         ...        done! (  4.2s)
Overall time for CPCM initialization              ...                 5.3s
--------------
SCF ITERATIONS
--------------
ITER       Energy         Delta-E        Max-DP      RMS-DP      [F,P]     Damp
               ***  Starting incremental Fock matrix formation  ***
  0  -1353.8325799566   0.000000000000 0.45634485  0.00105654  0.2778093 0.7000
  1  -1354.1150259400  -0.282445983421 0.35793455  0.00096056  0.1127580 0.7000
                               ***Turning on DIIS***
  2  -1354.2325883525  -0.117562412558 0.36093097  0.00163796  0.0341964 0.0000
  3  -1354.4224700783  -0.189881725764 0.31993638  0.00078444  0.0518321 0.0000
  4  -1354.4577249053  -0.035254826976 0.05145786  0.00026044  0.0199800 0.0000
  5  -1354.4599277260  -0.002202820718 0.03957706  0.00010520  0.0075667 0.0000
                      *** Initiating the SOSCF procedure ***
                           *** Shutting down DIIS ***
                      *** Re-Reading the Fockian *** 
                      *** Removing any level shift *** 
ITER      Energy       Delta-E        Grad      Rot      Max-DP    RMS-DP
  6  -1354.46013131  -0.0002035859  0.000256  0.000256  0.006788  0.000027
               *** Restarting incremental Fock matrix formation ***
  7  -1354.46016643  -0.0000351162  0.000159  0.000946  0.003673  0.000030
  8  -1354.46016562   0.0000008118  0.000257  0.000529  0.001345  0.000008
  9  -1354.46017035  -0.0000047309  0.000054  0.000194  0.001261  0.000006
 10  -1354.46017000   0.0000003469  0.000071  0.000103  0.000641  0.000002
 11  -1354.46017055  -0.0000005513  0.000008  0.000026  0.000854  0.000002
 12  -1354.46017058  -0.0000000311  0.000014  0.000018  0.000617  0.000001
                  ***Gradient check signals convergence***
              ***Rediagonalizing the Fockian in SOSCF/NRSCF***

               *****************************************************
               *                     SUCCESS                       *
               *           SCF CONVERGED AFTER  13 CYCLES          *
               *****************************************************

Old exchange energy                            =    -44.696149947 Eh
New exchange energy                            =    -44.696195551 Eh
Exchange energy change after final integration =     -0.000045604 Eh
Total energy after final integration           =  -1354.460216188 Eh
Final COS-X integration done in                =    80.556 sec

----------------
TOTAL SCF ENERGY
----------------

Total Energy       :        -1354.46021619 Eh          -36856.73624 eV

Components:
Nuclear Repulsion  :         3018.26760844 Eh           82131.23710 eV
Electronic Energy  :        -4372.72782463 Eh         -118987.97334 eV
One Electron Energy:        -7851.30413596 Eh         -213644.84703 eV
Two Electron Energy:         3478.57631133 Eh           94656.87369 eV
Max COSX asymmetry :            0.00000263 Eh               0.00007 eV
CPCM Dielectric    :           -0.06745082 Eh              -1.83543 eV

Virial components:
Potential Energy   :        -2702.90872434 Eh          -73549.88559 eV
Kinetic Energy     :         1348.44850815 Eh           36693.14935 eV
Virial Ratio       :            2.00445824


DFT components:
N(Alpha)           :      106.000177197138 electrons
N(Beta)            :      106.000177197138 electrons
N(Total)           :      212.000354394277 electrons
E(X)               :     -133.842213704399 Eh       
E(C)               :       -7.141497626132 Eh       
E(XC)              :     -140.983711330531 Eh       
DFET-embed. en.    :        0.000000000000 Eh       
CPCM Solvation Model Properties:
Surface-charge          :           -0.03417641
Charge-correction       :           -0.00072945 Eh              -0.01985 eV
Free-energy (cav+disp)  :  This term is not implemented in the current solvation scheme

---------------
SCF CONVERGENCE
---------------

  Last Energy change         ...   -1.0912e-09  Tolerance :   1.0000e-08
  Last MAX-Density change    ...    2.6645e-15  Tolerance :   1.0000e-07
  Last RMS-Density change    ...    1.2580e-17  Tolerance :   5.0000e-09
  Last Orbital Gradient      ...    2.2380e-06  Tolerance :   1.0000e-05
  Last Orbital Rotation      ...    6.3201e-06  Tolerance :   1.0000e-05

             **** THE GBW FILE WAS UPDATED (TS2_CHCHNMe2/TS2_CHCHNMe2.gbw) ****
             **** DENSITY TS2_CHCHNMe2/TS2_CHCHNMe2.scfp WAS UPDATED ****
             **** ENERGY FILE WAS UPDATED (TS2_CHCHNMe2/TS2_CHCHNMe2.en.tmp) ****
             **** THE GBW FILE WAS UPDATED (TS2_CHCHNMe2/TS2_CHCHNMe2.gbw) ****
             **** DENSITY TS2_CHCHNMe2/TS2_CHCHNMe2.scfp WAS UPDATED ****
----------------
ORBITAL ENERGIES
----------------

  NO   OCC          E(Eh)            E(eV) 
   0   2.0000     -19.265624      -524.2443 
   1   2.0000     -19.246336      -523.7194 
   2   2.0000     -19.202821      -522.5353 
   3   2.0000     -19.199331      -522.4404 
   4   2.0000     -19.168969      -521.6142 
   5   2.0000     -14.536455      -395.5570 
   6   2.0000     -14.443973      -393.0405 
   7   2.0000     -14.408144      -392.0655 
   8   2.0000     -10.364308      -282.0271 
   9   2.0000     -10.321149      -280.8527 
  10   2.0000     -10.290701      -280.0242 
  11   2.0000     -10.285962      -279.8952 
  12   2.0000     -10.285856      -279.8924 
  13   2.0000     -10.270790      -279.4824 
  14   2.0000     -10.267118      -279.3825 
  15   2.0000     -10.260618      -279.2056 
  16   2.0000     -10.257405      -279.1182 
  17   2.0000     -10.253854      -279.0216 
  18   2.0000     -10.253042      -278.9995 
  19   2.0000     -10.251286      -278.9517 
  20   2.0000     -10.251012      -278.9442 
  21   2.0000     -10.242479      -278.7120 
  22   2.0000     -10.240324      -278.6534 
  23   2.0000     -10.238536      -278.6047 
  24   2.0000     -10.229121      -278.3485 
  25   2.0000     -10.228675      -278.3364 
  26   2.0000     -10.225943      -278.2621 
  27   2.0000     -10.221379      -278.1379 
  28   2.0000     -10.208053      -277.7752 
  29   2.0000      -1.174551       -31.9612 
  30   2.0000      -1.153670       -31.3930 
  31   2.0000      -1.109364       -30.1873 
  32   2.0000      -1.059828       -28.8394 
  33   2.0000      -1.021055       -27.7843 
  34   2.0000      -1.004013       -27.3206 
  35   2.0000      -0.982369       -26.7316 
  36   2.0000      -0.901613       -24.5341 
  37   2.0000      -0.873300       -23.7637 
  38   2.0000      -0.857372       -23.3303 
  39   2.0000      -0.825702       -22.4685 
  40   2.0000      -0.816523       -22.2187 
  41   2.0000      -0.791969       -21.5506 
  42   2.0000      -0.780897       -21.2493 
  43   2.0000      -0.777523       -21.1575 
  44   2.0000      -0.747022       -20.3275 
  45   2.0000      -0.743175       -20.2228 
  46   2.0000      -0.719330       -19.5740 
  47   2.0000      -0.696280       -18.9467 
  48   2.0000      -0.687740       -18.7144 
  49   2.0000      -0.681529       -18.5454 
  50   2.0000      -0.668710       -18.1965 
  51   2.0000      -0.625137       -17.0108 
  52   2.0000      -0.613472       -16.6934 
  53   2.0000      -0.597832       -16.2678 
  54   2.0000      -0.593591       -16.1524 
  55   2.0000      -0.576298       -15.6819 
  56   2.0000      -0.561925       -15.2908 
  57   2.0000      -0.554748       -15.0954 
  58   2.0000      -0.547447       -14.8968 
  59   2.0000      -0.531650       -14.4669 
  60   2.0000      -0.525513       -14.2999 
  61   2.0000      -0.521813       -14.1993 
  62   2.0000      -0.513651       -13.9771 
  63   2.0000      -0.508563       -13.8387 
  64   2.0000      -0.504603       -13.7310 
  65   2.0000      -0.499393       -13.5892 
  66   2.0000      -0.494726       -13.4622 
  67   2.0000      -0.491537       -13.3754 
  68   2.0000      -0.487531       -13.2664 
  69   2.0000      -0.479701       -13.0533 
  70   2.0000      -0.478509       -13.0209 
  71   2.0000      -0.474296       -12.9062 
  72   2.0000      -0.463411       -12.6101 
  73   2.0000      -0.459301       -12.4982 
  74   2.0000      -0.456176       -12.4132 
  75   2.0000      -0.451193       -12.2776 
  76   2.0000      -0.443545       -12.0695 
  77   2.0000      -0.432267       -11.7626 
  78   2.0000      -0.429831       -11.6963 
  79   2.0000      -0.420054       -11.4303 
  80   2.0000      -0.412198       -11.2165 
  81   2.0000      -0.411148       -11.1879 
[...]
 70:    967.23   0.001599    8.08  0.000516  ( 0.012136 -0.012547  0.014530)
 71:    970.33   0.022510  113.76  0.007239  ( 0.020351  0.077610  0.028317)
 72:    980.62   0.000542    2.74  0.000172  (-0.000331 -0.011345  0.006601)
 73:    996.14   0.000250    1.26  0.000078  ( 0.002560 -0.007704  0.003503)
 74:   1016.88   0.000039    0.20  0.000012  ( 0.002323  0.000556  0.002486)
 75:   1036.66   0.019520   98.65  0.005876  (-0.059610  0.046925 -0.010989)
 76:   1041.17   0.000051    0.26  0.000015  ( 0.002631 -0.002672 -0.001150)
 77:   1060.84   0.000070    0.36  0.000021  ( 0.002704  0.002086 -0.003004)
 78:   1066.80   0.099531  502.99  0.029115  (-0.011873 -0.134757  0.103993)
 79:   1073.32   0.032834  165.93  0.009546  ( 0.039069 -0.070089  0.055745)
 80:   1084.89   0.007465   37.72  0.002147  (-0.021603 -0.034662 -0.021888)
 81:   1085.01   0.008636   43.65  0.002484  ( 0.041464  0.006908 -0.026776)
 82:   1087.08   0.031864  161.03  0.009147  ( 0.033583  0.088131  0.015883)
 83:   1096.91   0.012162   61.46  0.003460  (-0.042257 -0.012317  0.039022)
 84:   1112.09   0.002424   12.25  0.000680  ( 0.016453 -0.003832  0.019869)
 85:   1118.06   0.002471   12.49  0.000690  (-0.022754 -0.011921  0.005458)
 86:   1119.02   0.007308   36.93  0.002038  ( 0.002180 -0.016642  0.041907)
 87:   1137.08   0.018377   92.87  0.005043  (-0.033663 -0.029441  0.055167)
 88:   1137.53   0.005661   28.61  0.001553  ( 0.022453  0.016647 -0.027781)
 89:   1156.58   0.013862   70.05  0.003740  ( 0.006464  0.039892 -0.045902)
 90:   1168.42   0.000804    4.06  0.000215  (-0.004734 -0.001252 -0.013807)
 91:   1171.20   0.000179    0.90  0.000048  (-0.005301  0.004243 -0.001238)
 92:   1171.72   0.000514    2.60  0.000137  ( 0.010230 -0.002605 -0.005033)
 93:   1174.85   0.001740    8.79  0.000462  (-0.014355 -0.011040  0.011586)
 94:   1193.84   0.000695    3.51  0.000182  (-0.003284 -0.007937  0.010387)
 95:   1208.43   0.000515    2.60  0.000133  (-0.002741  0.000876 -0.011168)
 96:   1213.41   0.002855   14.43  0.000734  ( 0.025190  0.002846 -0.009569)
 97:   1222.36   0.013674   69.10  0.003491  ( 0.053732 -0.021854 -0.011231)
 98:   1235.34   0.007819   39.51  0.001975  (-0.038590  0.021557 -0.004615)
 99:   1239.49   0.003889   19.65  0.000979  ( 0.028285 -0.004063 -0.012751)
100:   1257.65   0.010466   52.89  0.002597  (-0.031484 -0.038163  0.012216)
101:   1275.30   0.031717  160.29  0.007761  (-0.053570 -0.003655  0.069842)
102:   1281.34   0.085979  434.50  0.020940  ( 0.118083  0.000204 -0.083642)
103:   1299.24   0.045434  229.61  0.010913  (-0.040395  0.004139  0.096249)
104:   1308.17   0.073878  373.35  0.017624  ( 0.096076  0.072030  0.056609)
105:   1314.58   0.006348   32.08  0.001507  ( 0.026599 -0.027062 -0.008183)
106:   1324.69   0.020699  104.60  0.004876  ( 0.041271  0.027921  0.048922)
107:   1344.41   0.003392   17.14  0.000787  (-0.010299 -0.010379 -0.023950)
108:   1372.32   0.016089   81.31  0.003659  ( 0.053849  0.014497  0.023425)
109:   1384.17   0.002994   15.13  0.000675  ( 0.008560  0.006927 -0.023533)
110:   1389.75   0.000121    0.61  0.000027  ( 0.002948  0.003833 -0.001942)
111:   1400.63   0.020074  101.45  0.004473  (-0.022359  0.017149 -0.060651)
112:   1405.90   0.080507  406.85  0.017870  (-0.017794  0.101661 -0.084961)
113:   1435.67   0.002599   13.14  0.000565  (-0.004016 -0.017056  0.016060)
114:   1442.13   0.003355   16.95  0.000726  (-0.025518  0.006318  0.005909)
115:   1456.38   0.022462  113.52  0.004813  (-0.013225 -0.056120  0.038584)
116:   1459.91   0.005206   26.31  0.001113  (-0.006554 -0.008518  0.031581)
117:   1465.76   0.006390   32.29  0.001360  ( 0.000051 -0.008750 -0.035831)
118:   1466.14   0.003610   18.24  0.000768  (-0.023622  0.003453  0.014083)
119:   1466.61   0.004037   20.40  0.000859  (-0.014522  0.001947 -0.025383)
120:   1470.48   0.015258   77.11  0.003238  ( 0.027527  0.021179  0.045074)
121:   1473.15   0.003154   15.94  0.000668  ( 0.016171 -0.019801  0.003807)
122:   1473.80   0.001462    7.39  0.000310  (-0.001482  0.016708 -0.005309)
123:   1482.75   0.004567   23.08  0.000961  ( 0.001019 -0.005692 -0.030458)
124:   1488.34   0.000799    4.04  0.000167  ( 0.001058  0.003901 -0.012294)
125:   1496.00   0.015418   77.92  0.003216  (-0.011418 -0.000852 -0.055543)
126:   1497.76   0.009101   45.99  0.001896  (-0.016771  0.006305  0.039688)
127:   1509.80   0.014664   74.11  0.003031  (-0.039484  0.036045 -0.013144)
128:   1530.30   0.000905    4.57  0.000184  ( 0.011376  0.007416  0.000306)
129:   1538.02   0.032793  165.72  0.006654  ( 0.014518 -0.014309 -0.078982)
130:   1640.37   0.228328  1153.88  0.043437  (-0.073528 -0.151325  0.123010)
131:   1649.87   0.002218   11.21  0.000419  ( 0.002094 -0.004352  0.019904)
132:   1650.95   0.011592   58.58  0.002191  (-0.005378 -0.044284  0.014181)
133:   1663.91   0.011920   60.24  0.002236  ( 0.007943 -0.010922 -0.045312)
134:   1668.22   0.013797   69.72  0.002581  ( 0.047955 -0.005453 -0.015859)
135:   1703.14   0.059504  300.71  0.010903  (-0.043720  0.075514 -0.057350)
136:   1784.44   0.123370  623.46  0.021575  (-0.034122  0.122305 -0.073839)
137:   2993.66   0.015288   77.26  0.001594  ( 0.031322 -0.021276 -0.012646)
138:   3000.92   0.044976  227.29  0.004677  ( 0.012995  0.066754 -0.007215)
139:   3036.46   0.012904   65.21  0.001326  (-0.024782 -0.014755  0.022233)
140:   3072.31   0.006429   32.49  0.000653  ( 0.010297  0.020265  0.011673)
141:   3089.17   0.010106   51.07  0.001021  ( 0.016664  0.008338  0.025956)
142:   3093.14   0.005735   28.98  0.000579  (-0.005195 -0.000102  0.023486)
143:   3105.32   0.000614    3.10  0.000062  ( 0.001095 -0.004122 -0.006595)
144:   3108.21   0.007846   39.65  0.000788  ( 0.017184 -0.020829  0.007655)
145:   3141.81   0.003357   16.97  0.000333  (-0.015186  0.009139 -0.004397)
146:   3146.79   0.004460   22.54  0.000442  (-0.002322  0.016500 -0.012833)
147:   3155.75   0.003846   19.44  0.000380  ( 0.016553 -0.002523 -0.009996)
148:   3165.28   0.003761   19.01  0.000371  ( 0.002086  0.008524  0.017140)
149:   3184.96   0.000243    1.23  0.000024  ( 0.003863  0.002825 -0.000963)
150:   3189.62   0.000322    1.63  0.000031  ( 0.002402  0.004597  0.002140)
151:   3190.68   0.002044   10.33  0.000200  (-0.006405  0.005913 -0.011132)
152:   3195.32   0.001375    6.95  0.000134  (-0.008257 -0.008007 -0.001401)
153:   3202.61   0.000682    3.45  0.000066  ( 0.007838 -0.001570  0.001604)
154:   3205.60   0.000857    4.33  0.000083  (-0.008754  0.000611  0.002538)
155:   3213.11   0.003202   16.18  0.000311  ( 0.000302  0.006095  0.016544)
156:   3213.30   0.000004    0.02  0.000000  (-0.000303  0.000439 -0.000386)
157:   3223.87   0.003515   17.76  0.000340  ( 0.000214 -0.014441  0.011475)
158:   3230.51   0.000483    2.44  0.000047  ( 0.005060  0.003721 -0.002680)
159:   3231.02   0.000187    0.95  0.000018  ( 0.001665 -0.000112  0.003909)
160:   3235.14   0.000320    1.62  0.000031  (-0.005137  0.001392  0.001593)
161:   3278.70   0.000377    1.90  0.000036  ( 0.004703 -0.003344 -0.001602)

* The epsilon (eps) is given for a Dirac delta lineshape.
** The dipole moment derivative (T) already includes vibrational overlap.

The first frequency considered to be a vibration is 7
The total number of vibrations considered is 155


--------------------------
THERMOCHEMISTRY AT 298.15K
--------------------------

Temperature         ... 298.15 K
Pressure            ... 1.00 atm
Total Mass          ... 399.45 AMU

Throughout the following assumptions are being made:
  (1) The electronic state is orbitally nondegenerate
  (2) There are no thermally accessible electronically excited states
  (3) Hindered rotations indicated by low frequency modes are not
      treated as such but are treated as vibrations and this may
      cause some error
  (4) All equations used are the standard statistical mechanics
      equations for an ideal gas
  (5) All vibrations are strictly harmonic

freq.      20.88  E(vib)   ...       0.56 
freq.      31.90  E(vib)   ...       0.55 
freq.      34.80  E(vib)   ...       0.54 
freq.      39.42  E(vib)   ...       0.54 
freq.      49.73  E(vib)   ...       0.52 
freq.      55.54  E(vib)   ...       0.52 
freq.      59.50  E(vib)   ...       0.51 
freq.      63.65  E(vib)   ...       0.51 
freq.      77.87  E(vib)   ...       0.49 
freq.      89.66  E(vib)   ...       0.47 
freq.     104.07  E(vib)   ...       0.46 
freq.     107.35  E(vib)   ...       0.45 
freq.     122.18  E(vib)   ...       0.43 
freq.     142.67  E(vib)   ...       0.41 
freq.     150.21  E(vib)   ...       0.40 
freq.     156.13  E(vib)   ...       0.40 
freq.     162.24  E(vib)   ...       0.39 
freq.     173.50  E(vib)   ...       0.38 
freq.     178.87  E(vib)   ...       0.37 
freq.     195.41  E(vib)   ...       0.36 
freq.     204.23  E(vib)   ...       0.35 
freq.     209.24  E(vib)   ...       0.34 
freq.     220.83  E(vib)   ...       0.33 
freq.     243.03  E(vib)   ...       0.31 
freq.     247.43  E(vib)   ...       0.31 
freq.     251.58  E(vib)   ...       0.30 
freq.     268.83  E(vib)   ...       0.29 
freq.     285.74  E(vib)   ...       0.28 
freq.     311.51  E(vib)   ...       0.25 
freq.     313.94  E(vib)   ...       0.25 
freq.     336.31  E(vib)   ...       0.24 
freq.     343.82  E(vib)   ...       0.23 
freq.     397.10  E(vib)   ...       0.20 
freq.     406.12  E(vib)   ...       0.19 
freq.     446.00  E(vib)   ...       0.17 
freq.     450.94  E(vib)   ...       0.17 
freq.     477.25  E(vib)   ...       0.15 
freq.     489.07  E(vib)   ...       0.15 
freq.     500.22  E(vib)   ...       0.14 
freq.     515.79  E(vib)   ...       0.13 
freq.     559.36  E(vib)   ...       0.12 
freq.     582.09  E(vib)   ...       0.11 
freq.     607.67  E(vib)   ...       0.10 
freq.     631.95  E(vib)   ...       0.09 
freq.     635.48  E(vib)   ...       0.09 
freq.     659.43  E(vib)   ...       0.08 
freq.     667.60  E(vib)   ...       0.08 
freq.     696.40  E(vib)   ...       0.07 
freq.     712.78  E(vib)   ...       0.07 
freq.     717.92  E(vib)   ...       0.07 
freq.     735.42  E(vib)   ...       0.06 
freq.     756.89  E(vib)   ...       0.06 
freq.     768.22  E(vib)   ...       0.06 
freq.     777.05  E(vib)   ...       0.05 
freq.     781.26  E(vib)   ...       0.05 
freq.     808.61  E(vib)   ...       0.05 
freq.     814.60  E(vib)   ...       0.05 
freq.     851.13  E(vib)   ...       0.04 
freq.     872.82  E(vib)   ...       0.04 
freq.     879.33  E(vib)   ...       0.04 
freq.     894.83  E(vib)   ...       0.03 
freq.     898.35  E(vib)   ...       0.03 
freq.     917.33  E(vib)   ...       0.03 
freq.     967.23  E(vib)   ...       0.03 
freq.     970.33  E(vib)   ...       0.03 
freq.     980.62  E(vib)   ...       0.02 
freq.     996.14  E(vib)   ...       0.02 
freq.    1016.88  E(vib)   ...       0.02 
freq.    1036.66  E(vib)   ...       0.02 
freq.    1041.17  E(vib)   ...       0.02 
freq.    1060.84  E(vib)   ...       0.02 
freq.    1066.80  E(vib)   ...       0.02 
freq.    1073.32  E(vib)   ...       0.02 
freq.    1084.89  E(vib)   ...       0.02 
freq.    1085.01  E(vib)   ...       0.02 
freq.    1087.08  E(vib)   ...       0.02 
freq.    1096.91  E(vib)   ...       0.02 
freq.    1112.09  E(vib)   ...       0.01 
freq.    1118.06  E(vib)   ...       0.01 
freq.    1119.02  E(vib)   ...       0.01 
freq.    1137.08  E(vib)   ...       0.01 
freq.    1137.53  E(vib)   ...       0.01 
freq.    1156.58  E(vib)   ...       0.01 
freq.    1168.42  E(vib)   ...       0.01 
freq.    1171.20  E(vib)   ...       0.01 
freq.    1171.72  E(vib)   ...       0.01 
freq.    1174.85  E(vib)   ...       0.01 
freq.    1193.84  E(vib)   ...       0.01 
freq.    1208.43  E(vib)   ...       0.01 
freq.    1213.41  E(vib)   ...       0.01 
freq.    1222.36  E(vib)   ...       0.01 
freq.    1235.34  E(vib)   ...       0.01 
freq.    1239.49  E(vib)   ...       0.01 
freq.    1257.65  E(vib)   ...       0.01 
freq.    1275.30  E(vib)   ...       0.01 
freq.    1281.34  E(vib)   ...       0.01 
freq.    1299.24  E(vib)   ...       0.01 
freq.    1308.17  E(vib)   ...       0.01 
freq.    1314.58  E(vib)   ...       0.01 
freq.    1324.69  E(vib)   ...       0.01 
freq.    1344.41  E(vib)   ...       0.01 
freq.    1372.32  E(vib)   ...       0.01 
freq.    1384.17  E(vib)   ...       0.00 
freq.    1389.75  E(vib)   ...       0.00 
freq.    1400.63  E(vib)   ...       0.00 
freq.    1405.90  E(vib)   ...       0.00 
freq.    1435.67  E(vib)   ...       0.00 
freq.    1442.13  E(vib)   ...       0.00 
freq.    1456.38  E(vib)   ...       0.00 
freq.    1459.91  E(vib)   ...       0.00 
freq.    1465.76  E(vib)   ...       0.00 
freq.    1466.14  E(vib)   ...       0.00 
freq.    1466.61  E(vib)   ...       0.00 
freq.    1470.48  E(vib)   ...       0.00 
freq.    1473.15  E(vib)   ...       0.00 
freq.    1473.80  E(vib)   ...       0.00 
freq.    1482.75  E(vib)   ...       0.00 
freq.    1488.34  E(vib)   ...       0.00 
freq.    1496.00  E(vib)   ...       0.00 
freq.    1497.76  E(vib)   ...       0.00 
freq.    1509.80  E(vib)   ...       0.00 
freq.    1530.30  E(vib)   ...       0.00 
freq.    1538.02  E(vib)   ...       0.00 
freq.    1640.37  E(vib)   ...       0.00 
freq.    1649.87  E(vib)   ...       0.00 
freq.    1650.95  E(vib)   ...       0.00 
freq.    1663.91  E(vib)   ...       0.00 
freq.    1668.22  E(vib)   ...       0.00 
freq.    1703.14  E(vib)   ...       0.00 
freq.    1784.44  E(vib)   ...       0.00 
freq.    2993.66  E(vib)   ...       0.00 
freq.    3000.92  E(vib)   ...       0.00 
freq.    3036.46  E(vib)   ...       0.00 
freq.    3072.31  E(vib)   ...       0.00 
freq.    3089.17  E(vib)   ...       0.00 
freq.    3093.14  E(vib)   ...       0.00 
freq.    3105.32  E(vib)   ...       0.00 
freq.    3108.21  E(vib)   ...       0.00 
freq.    3141.81  E(vib)   ...       0.00 
freq.    3146.79  E(vib)   ...       0.00 
freq.    3155.75  E(vib)   ...       0.00 
freq.    3165.28  E(vib)   ...       0.00 
freq.    3184.96  E(vib)   ...       0.00 
freq.    3189.62  E(vib)   ...       0.00 
freq.    3190.68  E(vib)   ...       0.00 
freq.    3195.32  E(vib)   ...       0.00 
freq.    3202.61  E(vib)   ...       0.00 
freq.    3205.60  E(vib)   ...       0.00 
freq.    3213.11  E(vib)   ...       0.00 
freq.    3213.30  E(vib)   ...       0.00 
freq.    3223.87  E(vib)   ...       0.00 
freq.    3230.51  E(vib)   ...       0.00 
freq.    3231.02  E(vib)   ...       0.00 
freq.    3235.14  E(vib)   ...       0.00 
freq.    3278.70  E(vib)   ...       0.00 

------------
INNER ENERGY
------------

The inner energy is: U= E(el) + E(ZPE) + E(vib) + E(rot) + E(trans)
    E(el)   - is the total energy from the electronic structure calculation
              = E(kin-el) + E(nuc-el) + E(el-el) + E(nuc-nuc)
    E(ZPE)  - the the zero temperature vibrational energy from the frequency calculation
    E(vib)  - the the finite temperature correction to E(ZPE) due to population
              of excited vibrational states
    E(rot)  - is the rotational thermal energy
    E(trans)- is the translational thermal energy

Summary of contributions to the inner energy U:
Electronic energy                ...  -1354.52921414 Eh
Zero point energy                ...      0.43895683 Eh     275.45 kcal/mol
Thermal vibrational correction   ...      0.02568448 Eh      16.12 kcal/mol
Thermal rotational correction    ...      0.00141627 Eh       0.89 kcal/mol
Thermal translational correction ...      0.00141627 Eh       0.89 kcal/mol
-----------------------------------------------------------------------
Total thermal energy                  -1354.06174028 Eh


Summary of corrections to the electronic energy:
(perhaps to be used in another calculation)
Total thermal correction                  0.02851703 Eh      17.89 kcal/mol
Non-thermal (ZPE) correction              0.43895683 Eh     275.45 kcal/mol
-----------------------------------------------------------------------
Total correction                          0.46747386 Eh     293.34 kcal/mol


--------
ENTHALPY
--------

The enthalpy is H = U + kB*T
                kB is Boltzmann's constant
Total free energy                 ...  -1354.06174028 Eh 
Thermal Enthalpy correction       ...      0.00094421 Eh       0.59 kcal/mol
-----------------------------------------------------------------------
Total Enthalpy                    ...  -1354.06079607 Eh


Note: Only C1 symmetry has been detected, increase convergence thresholds 
      if your molecule has a higher symmetry. Symmetry factor of 1.0 is   
      used for the rotational entropy correction. 
 

Note: Rotational entropy computed according to Herzberg 
Infrared and Raman Spectra, Chapter V,1, Van Nostrand Reinhold, 1945 
Point Group:  C1, Symmetry Number:   1  
Rotational constants in cm-1:     0.006503     0.005411     0.004124 

Vibrational entropy computed according to the QRRHO of S. Grimme
Chem.Eur.J. 2012 18 9955


-------
ENTROPY
-------

The entropy contributions are T*S = T*(S(el)+S(vib)+S(rot)+S(trans))
     S(el)   - electronic entropy
     S(vib)  - vibrational entropy
     S(rot)  - rotational entropy
     S(trans)- translational entropy
The entropies will be listed as multiplied by the temperature to get
units of energy

Electronic entropy                ...      0.00000000 Eh      0.00 kcal/mol
Vibrational entropy               ...      0.04651833 Eh     29.19 kcal/mol
Rotational entropy                ...      0.01694425 Eh     10.63 kcal/mol
Translational entropy             ...      0.02083265 Eh     13.07 kcal/mol
-----------------------------------------------------------------------
Final entropy term                ...      0.08429522 Eh     52.90 kcal/mol

In case the symmetry of your molecule has not been determined correctly
or in case you have a reason to use a different symmetry number we print 
out the resulting rotational entropy values for sn=1,12 :
 --------------------------------------------------------
|  sn= 1 | S(rot)=       0.01694425 Eh     10.63 kcal/mol|
|  sn= 2 | S(rot)=       0.01628979 Eh     10.22 kcal/mol|
|  sn= 3 | S(rot)=       0.01590696 Eh      9.98 kcal/mol|
|  sn= 4 | S(rot)=       0.01563533 Eh      9.81 kcal/mol|
|  sn= 5 | S(rot)=       0.01542465 Eh      9.68 kcal/mol|
|  sn= 6 | S(rot)=       0.01525250 Eh      9.57 kcal/mol|
|  sn= 7 | S(rot)=       0.01510696 Eh      9.48 kcal/mol|
|  sn= 8 | S(rot)=       0.01498088 Eh      9.40 kcal/mol|
|  sn= 9 | S(rot)=       0.01486967 Eh      9.33 kcal/mol|
|  sn=10 | S(rot)=       0.01477019 Eh      9.27 kcal/mol|
|  sn=11 | S(rot)=       0.01468020 Eh      9.21 kcal/mol|
|  sn=12 | S(rot)=       0.01459804 Eh      9.16 kcal/mol|
 --------------------------------------------------------


-------------------
GIBBS FREE ENERGY
-------------------

The Gibbs free energy is G = H - T*S

Total enthalpy                    ...  -1354.06079607 Eh 
Total entropy correction          ...     -0.08429522 Eh    -52.90 kcal/mol
-----------------------------------------------------------------------
Final Gibbs free energy         ...  -1354.14509129 Eh

For completeness - the Gibbs free energy minus the electronic energy
G-E(el)                           ...      0.38412284 Eh    241.04 kcal/mol


Timings for individual modules:

Sum of individual times         ...    82318.479 sec (=1371.975 min)
GTO integral calculation        ...      462.417 sec (=   7.707 min)   0.6 %
SCF iterations                  ...    25489.550 sec (= 424.826 min)  31.0 %
SCF Gradient evaluation         ...     6983.788 sec (= 116.396 min)   8.5 %
Geometry relaxation             ...        7.432 sec (=   0.124 min)   0.0 %
Analytical frequency calculation...    49375.292 sec (= 822.922 min)  60.0 %
                             ****ORCA TERMINATED NORMALLY****
TOTAL RUN TIME: 0 days 22 hours 53 minutes 56 seconds 24 msec
