
                                 *****************
                                 * O   R   C   A *
                                 *****************

                                            #,                                       
                                            ###                                      
                                            ####                                     
                                            #####                                    
                                            ######                                   
                                           ########,                                 
                                     ,,################,,,,,                         
                               ,,#################################,,                 
                          ,,##########################################,,             
                       ,#########################################, ''#####,          
                    ,#############################################,,   '####,        
                  ,##################################################,,,,####,       
                ,###########''''           ''''###############################       
              ,#####''   ,,,,##########,,,,          '''####'''          '####       
            ,##' ,,,,###########################,,,                        '##       
           ' ,,###''''                  '''############,,,                           
         ,,##''                                '''############,,,,        ,,,,,,###''
      ,#''                                            '''#######################'''  
     '                                                          ''''####''''         
             ,#######,   #######,   ,#######,      ##                                
            ,#'     '#,  ##    ##  ,#'     '#,    #''#        ######   ,####,        
            ##       ##  ##   ,#'  ##            #'  '#       #        #'  '#        
            ##       ##  #######   ##           ,######,      #####,   #    #        
            '#,     ,#'  ##    ##  '#,     ,#' ,#      #,         ##   #,  ,#        
             '#######'   ##     ##  '#######'  #'      '#     #####' # '####'        



                  #######################################################
                  #                        -***-                        #
                  #          Department of theory and spectroscopy      #
                  #    Directorship and core code : Frank Neese         #
                  #        Max Planck Institute fuer Kohlenforschung    #
                  #                Kaiser Wilhelm Platz 1               #
                  #                 D-45470 Muelheim/Ruhr               #
                  #                      Germany                        #
                  #                                                     #
                  #                  All rights reserved                #
                  #                        -***-                        #
                  #######################################################


                         Program Version 5.0.4 -  RELEASE  -


 With contributions from (in alphabetic order):
   Daniel Aravena         : Magnetic Suceptibility
   Michael Atanasov       : Ab Initio Ligand Field Theory (pilot matlab implementation)
   Alexander A. Auer      : GIAO ZORA, VPT2 properties, NMR spectrum
   Ute Becker             : Parallelization
   Giovanni Bistoni       : ED, misc. LED, open-shell LED, HFLD
   Martin Brehm           : Molecular dynamics
   Dmytro Bykov           : SCF Hessian
   Vijay G. Chilkuri      : MRCI spin determinant printing, contributions to CSF-ICE
   Dipayan Datta          : RHF DLPNO-CCSD density
   Achintya Kumar Dutta   : EOM-CC, STEOM-CC
   Dmitry Ganyushin       : Spin-Orbit,Spin-Spin,Magnetic field MRCI
   Miquel Garcia          : C-PCM and meta-GGA Hessian, CC/C-PCM, Gaussian charge scheme
   Yang Guo               : DLPNO-NEVPT2, F12-NEVPT2, CIM, IAO-localization
   Andreas Hansen         : Spin unrestricted coupled pair/coupled cluster methods
   Benjamin Helmich-Paris : MC-RPA, TRAH-SCF, COSX integrals
   Lee Huntington         : MR-EOM, pCC
   Robert Izsak           : Overlap fitted RIJCOSX, COSX-SCS-MP3, EOM
   Marcus Kettner         : VPT2
   Christian Kollmar      : KDIIS, OOCD, Brueckner-CCSD(T), CCSD density, CASPT2, CASPT2-K
   Simone Kossmann        : Meta GGA functionals, TD-DFT gradient, OOMP2, MP2 Hessian
   Martin Krupicka        : Initial AUTO-CI
   Lucas Lang             : DCDCAS
   Marvin Lechner         : AUTO-CI (C++ implementation), FIC-MRCC
   Dagmar Lenk            : GEPOL surface, SMD
   Dimitrios Liakos       : Extrapolation schemes; Compound Job, initial MDCI parallelization
   Dimitrios Manganas     : Further ROCIS development; embedding schemes
   Dimitrios Pantazis     : SARC Basis sets
   Anastasios Papadopoulos: AUTO-CI, single reference methods and gradients
   Taras Petrenko         : DFT Hessian,TD-DFT gradient, ASA, ECA, R-Raman, ABS, FL, XAS/XES, NRVS
   Peter Pinski           : DLPNO-MP2, DLPNO-MP2 Gradient
   Christoph Reimann      : Effective Core Potentials
   Marius Retegan         : Local ZFS, SOC
   Christoph Riplinger    : Optimizer, TS searches, QM/MM, DLPNO-CCSD(T), (RO)-DLPNO pert. Triples
   Tobias Risthaus        : Range-separated hybrids, TD-DFT gradient, RPA, STAB
   Michael Roemelt        : Original ROCIS implementation
   Masaaki Saitow         : Open-shell DLPNO-CCSD energy and density
   Barbara Sandhoefer     : DKH picture change effects
   Avijit Sen             : IP-ROCIS
   Kantharuban Sivalingam : CASSCF convergence, NEVPT2, FIC-MRCI
   Bernardo de Souza      : ESD, SOC TD-DFT
   Georgi Stoychev        : AutoAux, RI-MP2 NMR, DLPNO-MP2 response
   Willem Van den Heuvel  : Paramagnetic NMR
   Boris Wezisla          : Elementary symmetry handling
   Frank Wennmohs         : Technical directorship


 We gratefully acknowledge several colleagues who have allowed us to
 interface, adapt or use parts of their codes:
   Stefan Grimme, W. Hujo, H. Kruse, P. Pracht,  : VdW corrections, initial TS optimization,
                  C. Bannwarth, S. Ehlert          DFT functionals, gCP, sTDA/sTD-DF
   Ed Valeev, F. Pavosevic, A. Kumar             : LibInt (2-el integral package), F12 methods
   Garnet Chan, S. Sharma, J. Yang, R. Olivares  : DMRG
   Ulf Ekstrom                                   : XCFun DFT Library
   Mihaly Kallay                                 : mrcc  (arbitrary order and MRCC methods)
   Jiri Pittner, Ondrej Demel                    : Mk-CCSD
   Frank Weinhold                                : gennbo (NPA and NBO analysis)
   Christopher J. Cramer and Donald G. Truhlar   : smd solvation model
   Lars Goerigk                                  : TD-DFT with DH, B97 family of functionals
   V. Asgeirsson, H. Jonsson                     : NEB implementation
   FAccTs GmbH                                   : IRC, NEB, NEB-TS, DLPNO-Multilevel, CI-OPT
                                                   MM, QMMM, 2- and 3-layer-ONIOM, Crystal-QMMM,
                                                   LR-CPCM, SF, NACMEs, symmetry and pop. for TD-DFT,
                                                   nearIR, NL-DFT gradient (VV10), updates on ESD,
                                                   ML-optimized integration grids
   S Lehtola, MJT Oliveira, MAL Marques          : LibXC Library
   Liviu Ungur et al                             : ANISO software


 Your calculation uses the libint2 library for the computation of 2-el integrals
 For citations please refer to: http://libint.valeyev.net

 Your ORCA version has been built with support for libXC version: 5.1.0
 For citations please refer to: https://tddft.org/programs/libxc/

 This ORCA versions uses:
   CBLAS   interface :  Fast vector & matrix operations
   LAPACKE interface :  Fast linear algebra routines
   SCALAPACK package :  Parallel linear algebra routines
   Shared memory     :  Shared parallel matrices
   BLAS/LAPACK       :  OpenBLAS 0.3.15  USE64BITINT DYNAMIC_ARCH NO_AFFINITY Haswell SINGLE_THREADED
        Core in use  :  Haswell
   Copyright (c) 2011-2014, The OpenBLAS Project


Your calculation utilizes the atom-pairwise dispersion correction
with the Becke-Johnson damping scheme (D3BJ)
Cite in your paper:
S.Grimme, S.Ehrlich, L.Goerigk, J Comput Chem, (2011), 32, 1456–1465 
S.Grimme, J.Antony, S.Ehrlich and H.Krieg, J.Chem.Phys., 132, (2010), 154104 
   

================================================================================

----- Orbital basis set information -----
Your calculation utilizes the basis: def2-TZVP
   F. Weigend and R. Ahlrichs, Phys. Chem. Chem. Phys. 7, 3297 (2005).

----- AuxJ basis set information -----
Your calculation utilizes the auxiliary basis: def2/J
   F. Weigend, Phys. Chem. Chem. Phys. 8, 1057 (2006).

================================================================================
                                        WARNINGS
                       Please study these warnings very carefully!
================================================================================


WARNING: Geometry Optimization
  ===> : Switching off AutoStart
         For restart on a previous wavefunction, please use MOREAD

INFO   : the flag for use of the SHARK integral package has been found!

================================================================================
                                       INPUT FILE
================================================================================
NAME = TS2_CF3/TS2_CF3.inp
|  1> %pal nprocs 24 end
|  2> ! PBE0 D3BJ def2-TZVP TightSCF OPTTS FREQ TightOpt
|  3> ! CPCM(dmso)
|  4> %scf
|  5> MaxIter 800
|  6> end
|  7> 
|  8> %geom
|  9> MaxIter 800
| 10> MaxStep 0.15
| 11> end
| 12> 
| 13> *xyz 0 1
| 14> C      -4.57475600      0.12467900      0.29232300
| 15> C      -3.78855000      0.60787900      1.33580400
| 16> C      -2.47252500      0.96761900      1.06704500
| 17> N      -1.96216500      0.86993200     -0.15959100
| 18> C      -2.70331200      0.41604900     -1.16974100
| 19> C      -4.02406700      0.02691000     -0.98499300
| 20> C      -0.02753900      1.26904600     -0.62916400
| 21> C      -0.10141900      2.57503600      0.09581800
| 22> O       0.20599200      2.70936600      1.25685000
| 23> O      -0.56385300      3.53659000     -0.68217500
| 24> C      -0.68080600      4.82874900     -0.09376400
| 25> H      -5.61026000     -0.17383200      0.47211700
| 26> H      -1.80927200      1.34636500      1.84991800
| 27> H      -2.22099700      0.35307600     -2.15004400
| 28> H      -4.60353400     -0.34738700     -1.83043700
| 29> H      -0.34994600      1.22158500     -1.66550400
| 30> H      -1.07804500      5.48414400     -0.87609300
| 31> H       0.30212300      5.18898100      0.24148400
| 32> C       2.02492000      0.14696700      0.05332300
| 33> C       0.53216400      0.04784700      0.08706400
| 34> C       0.02808200     -1.24754500     -0.51968500
| 35> C       0.40615700     -1.61873800     -1.80852700
| 36> C      -0.05936500     -2.79817400     -2.38939300
| 37> C      -0.91183400     -3.62244700     -1.65828400
| 38> C      -1.29744200     -3.27792700     -0.36271600
| 39> C      -0.82687400     -2.09243500      0.21454200
| 40> O      -1.15025500     -1.68835100      1.45810200
| 41> C      -2.07448800     -2.43892000      2.20977700
| 42> N       2.53968700      1.06320300     -0.74752000
| 43> O       3.73782600      1.22626100     -0.98826500
| 44> H       0.19516500      0.09925700      1.13197100
| 45> H       1.08256800     -0.96482900     -2.36710900
| 46> H       0.24610500     -3.07125700     -3.40161400
| 47> H      -1.28492000     -4.55263400     -2.09432800
| 48> H      -1.96239000     -3.93775700      0.19507600
| 49> H      -3.04764400     -2.50636100      1.69586300
| 50> H      -2.20660000     -1.90664000      3.15964400
| 51> H      -1.69999200     -3.45566900      2.41279700
| 52> O       1.67485800      1.85899500     -1.32125800
| 53> H      -1.36799100      4.79905700      0.76383600
| 54> H      -4.18036400      0.70188200      2.34986900
| 55> C       2.91802000     -0.86132900      0.66958100
| 56> F       3.94413700     -0.33140100      1.34713400
| 57> F       3.46118400     -1.70834300     -0.22709700
| 58> F       2.21929900     -1.61496700      1.53044900
| 59> *
| 60> 
| 61>                          ****END OF INPUT****
================================================================================

                       *****************************
                       * Geometry Optimization Run *
                       *****************************

Geometry optimization settings:
Update method            Update   .... Bofill
Choice of coordinates    CoordSys .... Z-matrix Internals
Initial Hessian          InHess   .... Almoef's Model

Convergence Tolerances:
Energy Change            TolE     ....  1.0000e-06 Eh
Max. Gradient            TolMAXG  ....  1.0000e-04 Eh/bohr
RMS Gradient             TolRMSG  ....  3.0000e-05 Eh/bohr
Max. Displacement        TolMAXD  ....  1.0000e-03 bohr
RMS Displacement         TolRMSD  ....  6.0000e-04 bohr
Strict Convergence                ....  False
------------------------------------------------------------------------------
                        ORCA OPTIMIZATION COORDINATE SETUP
------------------------------------------------------------------------------

The optimization will be done in new redundant internal coordinates
Making redundant internal coordinates   ...  (new redundants) done
Following TS mode number                ...     0
Evaluating the initial hessian          ...  (Almloef) done
Evaluating the coordinates              ...  done
Calculating the B-matrix                .... done
Calculating the G-matrix                .... done
Diagonalizing the G-matrix              .... done
Small eigenvalue found = 4.919e-03
Small eigenvalue found = 1.127e-02
Small eigenvalue found = 1.690e-02
Small eigenvalue found = 1.926e-02
Small eigenvalue found = 2.671e-02
The first mode is                       ....  187
The number of degrees of freedom        ....  129

    -----------------------------------------------------------------
                    Redundant Internal Coordinates


    -----------------------------------------------------------------
         Definition                    Initial Value    Approx d2E/dq
    -----------------------------------------------------------------
      1. B(C   1,C   0)                  1.3930         0.617944   
      2. B(C   2,C   1)                  1.3905         0.623587   
      3. B(N   3,C   2)                  1.3322         0.692083   
      4. B(C   4,N   3)                  1.3326         0.691067   
      5. B(C   5,C   0)                  1.3944         0.614777   
      6. B(C   5,C   4)                  1.3892         0.626571   
      7. B(C   6,N   3)                  2.0304         0.053228   
      8. B(C   7,N   3)                  2.5367         0.008286   
      9. B(C   7,C   6)                  1.4955         0.423976   
     10. B(O   8,C   7)                  1.2085         1.089937   
     11. B(O   9,C   7)                  1.3205         0.722384   
     12. B(C  10,O   9)                  1.4246         0.492743   
     13. B(H  11,C   0)                  1.0926         0.356720   
     14. B(H  12,O   8)                  2.5042         0.001788   
     15. B(H  12,C   2)                  1.0937         0.355201   
     16. B(H  13,C   4)                  1.0943         0.354400   
     17. B(H  14,C   5)                  1.0912         0.358553   
     18. B(H  15,C   6)                  1.0864         0.364934   
     19. B(H  15,H  13)                  2.1189         0.001573   
     20. B(H  15,C   4)                  2.5363         0.001774   
     21. B(H  15,N   3)                  2.2340         0.004824   
     22. B(H  16,C  10)                  1.0952         0.353335   
     23. B(H  17,C  10)                  1.0992         0.348094   
     24. B(C  19,N   3)                  2.6379         0.005715   
     25. B(C  19,C  18)                  1.4964         0.422616   
     26. B(C  19,C   6)                  1.5224         0.384210   
     27. B(C  20,C  19)                  1.5167         0.392326   
     28. B(C  21,C  20)                  1.3935         0.616817   
     29. B(C  22,C  21)                  1.3947         0.614104   
     30. B(C  23,C  22)                  1.3931         0.617785   
     31. B(C  24,C  23)                  1.3949         0.613539   
     32. B(C  25,C  24)                  1.4000         0.602219   
     33. B(C  25,C  20)                  1.4085         0.583740   
     34. B(O  26,C  25)                  1.3470         0.655456   
     35. B(C  27,O  26)                  1.4080         0.523714   
     36. B(N  28,C  18)                  1.3213         0.720259   
     37. B(O  29,N  28)                  1.2329         0.892543   
     38. B(H  30,C  19)                  1.0991         0.348249   
     39. B(H  30,H  12)                  2.4675         0.000437   
     40. B(H  30,N   3)                  2.6299         0.001127   
     41. B(H  31,C  21)                  1.0941         0.354665   
     42. B(H  32,C  22)                  1.0920         0.357456   
     43. B(H  33,C  23)                  1.0930         0.356197   
     44. B(H  34,C  24)                  1.0903         0.359758   
     45. B(H  35,C  27)                  1.1026         0.343834   
     46. B(H  36,C  27)                  1.0968         0.351185   
     47. B(H  37,C  27)                  1.1024         0.344089   
     48. B(O  38,N  28)                  1.3078         0.677841   
     49. B(O  38,C   6)                  1.9301         0.076952   
     50. B(H  39,C  10)                  1.0994         0.347934   
     51. B(H  40,C   1)                  1.0912         0.358537   
     52. B(C  41,C  18)                  1.4812         0.446865   
     53. B(F  42,C  41)                  1.3390         0.627185   
     54. B(F  43,C  41)                  1.3478         0.607208   
     55. B(F  44,C  41)                  1.3406         0.623364   
     56. A(C   5,C   0,H  11)          120.3904         0.351842   
     57. A(C   1,C   0,C   5)          119.1838         0.433147   
     58. A(C   1,C   0,H  11)          120.4258         0.352148   
     59. A(C   2,C   1,H  40)          119.8126         0.352994   
     60. A(C   0,C   1,C   2)          118.6276         0.434257   
     61. A(C   0,C   1,H  40)          121.5586         0.352451   
     62. A(C   1,C   2,H  12)          121.6794         0.352436   
     63. A(N   3,C   2,H  12)          116.8821         0.356504   
     64. A(C   1,C   2,N   3)          121.4382         0.440311   
     65. A(C   7,N   3,C  19)           60.4263         0.133246   
     66. A(C   2,N   3,C  19)          107.3985         0.209461   
     67. A(C   4,N   3,C  19)          119.3834         0.209421   
     68. A(C   2,N   3,C   4)          120.6575         0.445618   
     69. A(C   4,N   3,C   6)          114.9346         0.288554   
     70. A(C   4,N   3,C   7)          135.4995         0.219986   
     71. A(C   2,N   3,C   6)          124.3031         0.288620   
     72. A(C   2,N   3,C   7)           97.9911         0.220030   
     73. A(C   6,N   3,C  19)           35.1057         0.156407   
     74. A(C   6,N   3,C   7)           36.1224         0.162321   
     75. A(N   3,C   4,C   5)          121.5585         0.440574   
     76. A(N   3,C   4,H  13)          116.9703         0.356279   
     77. A(C   5,C   4,H  13)          121.4679         0.352586   
     78. A(C   0,C   5,C   4)          118.5316         0.434229   
     79. A(C   0,C   5,H  14)          121.6056         0.352148   
     80. A(C   4,C   5,H  14)          119.8626         0.353282   
     81. A(C  19,C   6,O  38)           95.1413         0.280503   
     82. A(H  15,C   6,O  38)           86.1611         0.252710   
     83. A(C   7,C   6,O  38)           87.1616         0.284820   
     84. A(N   3,C   6,O  38)          169.5582         0.210421   
     85. A(H  15,C   6,C  19)          121.5251         0.326535   
     86. A(C   7,C   6,C  19)          119.3798         0.373123   
     87. A(N   3,C   6,H  15)           85.9434         0.239607   
     88. A(N   3,C   6,C   7)           90.7147         0.269146   
     89. A(C   7,C   6,H  15)          119.0731         0.331889   
     90. A(N   3,C   6,C  19)           94.8083         0.265174   
     91. A(C   6,C   7,O   8)          123.3811         0.445789   
     92. A(N   3,C   7,O   9)           99.9773         0.221307   
     93. A(N   3,C   7,O   8)          110.9789         0.234216   
     94. A(N   3,C   7,C   6)           53.1629         0.207247   
     95. A(C   6,C   7,O   9)          111.5662         0.414072   
     96. A(O   8,C   7,O   9)          125.0404         0.488212   
     97. A(C   7,O   9,C  10)          116.4792         0.422554   
     98. A(H  16,C  10,H  17)          110.2485         0.288438   
     99. A(O   9,C  10,H  17)          110.4750         0.335576   
    100. A(O   9,C  10,H  16)          106.1128         0.336411   
    101. A(H  17,C  10,H  39)          109.2615         0.287744   
    102. A(H  16,C  10,H  39)          110.2852         0.288418   
    103. A(O   9,C  10,H  39)          110.4272         0.335550   
    104. A(C  19,C  18,N  28)          116.6306         0.413620   
    105. A(N  28,C  18,C  41)          119.2942         0.417745   
    106. A(C  19,C  18,C  41)          123.1611         0.382792   
    107. A(N   3,C  19,C   6)           50.0860         0.195313   
    108. A(C  18,C  19,C  20)          112.2780         0.374263   
    109. A(C   6,C  19,C  20)          112.0078         0.368178   
    110. A(C   6,C  19,C  18)          107.6386         0.372917   
    111. A(N   3,C  19,H  30)           77.5487         0.178926   
    112. A(N   3,C  19,C  18)          157.0018         0.197631   
    113. A(C  20,C  19,H  30)          108.5644         0.325146   
    114. A(C  18,C  19,H  30)          108.9169         0.329155   
    115. A(C   6,C  19,H  30)          107.2789         0.324032   
    116. A(N   3,C  19,C  20)           85.0950         0.195817   
    117. A(C  19,C  20,C  21)          120.4872         0.399751   
    118. A(C  21,C  20,C  25)          119.1458         0.428995   
    119. A(C  19,C  20,C  25)          120.3669         0.395899   
    120. A(C  20,C  21,C  22)          121.3259         0.432920   
    121. A(C  22,C  21,H  31)          119.9423         0.351434   
    122. A(C  20,C  21,H  31)          118.7318         0.351696   
    123. A(C  21,C  22,C  23)          119.0809         0.433042   
    124. A(C  23,C  22,H  32)          120.6428         0.352256   
    125. A(C  21,C  22,H  32)          120.2756         0.351900   
    126. A(C  22,C  23,C  24)          120.6939         0.432970   
    127. A(C  24,C  23,H  33)          119.1019         0.351635   
    128. A(C  22,C  23,H  33)          120.2038         0.352046   
    129. A(C  25,C  24,H  34)          120.4320         0.351120   
    130. A(C  23,C  24,H  34)          119.6229         0.352227   
    131. A(C  23,C  24,C  25)          119.9448         0.430989   
    132. A(C  24,C  25,O  26)          123.6420         0.433286   
    133. A(C  20,C  25,O  26)          116.5540         0.430866   
    134. A(C  20,C  25,C  24)          119.8030         0.427157   
    135. A(C  25,O  26,C  27)          119.3759         0.419828   
    136. A(H  36,C  27,H  37)          109.2095         0.287642   
    137. A(H  35,C  27,H  37)          109.2240         0.286693   
    138. A(O  26,C  27,H  37)          111.5294         0.338348   
    139. A(H  35,C  27,H  36)          109.0882         0.287609   
    140. A(O  26,C  27,H  36)          106.4209         0.339502   
    141. A(O  26,C  27,H  35)          111.2923         0.338306   
    142. A(O  29,N  28,O  38)          118.4561         0.458817   
    143. A(C  18,N  28,O  38)          115.4813         0.444276   
    144. A(C  18,N  28,O  29)          126.0622         0.467106   
    145. A(C   6,O  38,N  28)          103.8847         0.303157   
    146. A(F  43,C  41,F  44)          106.4975         0.423460   
    147. A(F  42,C  41,F  44)          107.2752         0.425919   
    148. A(C  18,C  41,F  44)          109.6075         0.405392   
    149. A(F  42,C  41,F  43)          106.0540         0.423923   
    150. A(C  18,C  41,F  43)          113.2032         0.403517   
    151. A(C  18,C  41,F  42)          113.7776         0.405829   
    152. D(H  40,C   1,C   0,H  11)     -0.0726         0.026413   
    153. D(H  40,C   1,C   0,C   5)    179.9095         0.026413   
    154. D(C   2,C   1,C   0,H  11)    179.5242         0.026413   
    155. D(C   2,C   1,C   0,C   5)     -0.4937         0.026413   
    156. D(H  12,C   2,C   1,C   0)   -179.5881         0.026927   
    157. D(H  12,C   2,C   1,H  40)      0.0159         0.026927   
    158. D(N   3,C   2,C   1,C   0)      0.6062         0.026927   
    159. D(N   3,C   2,C   1,H  40)   -179.7898         0.026927   
    160. D(C  19,N   3,C   2,C   1)   -141.8507         0.052407   
    161. D(C  19,N   3,C   2,H  12)     38.3347         0.052407   
    162. D(C   7,N   3,C   2,H  12)    -23.0916         0.052407   
    163. D(C   4,N   3,C   2,C   1)     -0.2723         0.052407   
    164. D(C   4,N   3,C   2,H  12)    179.9130         0.052407   
    165. D(C   7,N   3,C   2,C   1)    156.7230         0.052407   
    166. D(C   6,N   3,C   2,H  12)      3.8269         0.052407   
    167. D(C   6,N   3,C   2,C   1)   -176.3585         0.052407   
    168. D(C   5,C   4,N   3,C  19)    136.9361         0.055069   
    169. D(H  13,C   4,N   3,C   2)   -179.5155         0.055069   
    170. D(H  13,C   4,N   3,C   6)     -3.0805         0.055069   
    171. D(C   5,C   4,N   3,C   7)   -146.6617         0.055069   
    172. D(C   5,C   4,N   3,C   6)    176.2587         0.055069   
    173. D(H  13,C   4,N   3,C  19)    -42.4031         0.055069   
    174. D(H  13,C   4,N   3,C   7)     33.9991         0.055069   
    175. D(C   5,C   4,N   3,C   2)     -0.1763         0.055069   
    176. D(H  14,C   5,C   0,H  11)     -0.1081         0.026127   
    177. D(C   4,C   5,C   0,H  11)   -179.9441         0.026127   
    178. D(C   4,C   5,C   0,C   1)      0.0738         0.026127   
    179. D(C   0,C   5,C   4,N   3)      0.2714         0.029562   
    180. D(C   0,C   5,C   4,H  13)    179.5809         0.029562   
    181. D(H  14,C   5,C   0,C   1)    179.9097         0.026127   
    182. D(H  14,C   5,C   4,N   3)   -179.5675         0.029562   
    183. D(H  14,C   5,C   4,H  13)     -0.2580         0.029562   
    184. D(O  38,C   6,N   3,C  19)    162.2969         0.001744   
    185. D(O  38,C   6,N   3,C   7)    -78.1376         0.001744   
    186. D(O  38,C   6,N   3,C   4)     56.0663         0.001744   
    187. D(C  19,C   6,N   3,C   7)    119.5654         0.001744   
    188. D(C  19,C   6,N   3,C   4)   -106.2306         0.001744   
    189. D(C  19,C   6,N   3,C   2)     70.0568         0.001744   
    190. D(H  15,C   6,N   3,C  19)    121.3370         0.001744   
    191. D(H  15,C   6,N   3,C   7)   -119.0976         0.001744   
    192. D(H  15,C   6,N   3,C   4)     15.1064         0.001744   
    193. D(O  38,C   6,N   3,C   2)   -127.6463         0.001744   
    194. D(H  15,C   6,N   3,C   2)   -168.6062         0.001744   
    195. D(C   7,C   6,N   3,C   4)    134.2040         0.001744   
    196. D(C   7,C   6,N   3,C  19)   -119.5654         0.001744   
    197. D(C   7,C   6,N   3,C   2)    -49.5086         0.001744   
    198. D(O   9,C   7,C   6,H  15)     -0.6149         0.015100   
    199. D(O   8,C   7,C   6,N   3)     92.4143         0.015100   
    200. D(O   8,C   7,C   6,O  38)    -97.8148         0.015100   
    201. D(O   8,C   7,C   6,H  15)    178.1699         0.015100   
    202. D(O   9,C   7,N   3,C  19)    144.6538         0.001506   
    203. D(O   9,C   7,N   3,C   6)    109.5448         0.001506   
    204. D(O   8,C   7,N   3,C   6)   -116.6814         0.001506   
    205. D(C   6,C   7,N   3,C  19)     35.1090         0.001506   
    206. D(C   6,C   7,N   3,C   4)    -68.0361         0.001506   
    207. D(C   6,C   7,N   3,C   2)    140.6254         0.001506   
    208. D(O   8,C   7,N   3,C   4)    175.2825         0.001506   
    209. D(O   8,C   7,C   6,C  19)     -3.5106         0.015100   
    210. D(O   9,C   7,N   3,C   2)   -109.8298         0.001506   
    211. D(O   8,C   7,N   3,C  19)    -81.5724         0.001506   
    212. D(O   8,C   7,N   3,C   2)     23.9440         0.001506   
    213. D(O   9,C   7,C   6,C  19)    177.7046         0.015100   
    214. D(O   9,C   7,N   3,C   4)     41.5087         0.001506   
    215. D(N   3,C   7,C   6,O  38)    169.7709         0.015100   
    216. D(N   3,C   7,C   6,C  19)    -95.9249         0.015100   
    217. D(N   3,C   7,C   6,H  15)     85.7556         0.015100   
    218. D(O   9,C   7,C   6,N   3)    -86.3705         0.015100   
    219. D(O   9,C   7,C   6,O  38)     83.4004         0.015100   
    220. D(C  10,O   9,C   7,N   3)    125.6483         0.043465   
    221. D(C  10,O   9,C   7,O   8)      1.0817         0.043465   
    222. D(C  10,O   9,C   7,C   6)    179.8423         0.043465   
    223. D(H  39,C  10,O   9,C   7)    -60.2691         0.019178   
    224. D(H  17,C  10,O   9,C   7)     60.7161         0.019178   
    225. D(H  16,C  10,O   9,C   7)   -179.7855         0.019178   
    226. D(N   3,C  19,C  18,C  41)    166.2223         0.014128   
    227. D(H  30,C  19,C  18,C  41)     63.2736         0.014128   
    228. D(H  30,C  19,C  18,N  28)   -127.7675         0.014128   
    229. D(C  20,C  19,C  18,C  41)    -56.9977         0.014128   
    230. D(C   6,C  19,C  18,C  41)    179.2779         0.014128   
    231. D(C   6,C  19,C  18,N  28)    -11.7632         0.014128   
    232. D(N   3,C  19,C   6,O  38)   -176.8280         0.013143   
    233. D(N   3,C  19,C   6,C   7)     93.5388         0.013143   
    234. D(H  30,C  19,C   6,N   3)    -56.3163         0.013143   
    235. D(H  30,C  19,C   6,O  38)    126.8557         0.013143   
    236. D(H  30,C  19,C   6,H  15)   -144.5006         0.013143   
    237. D(H  30,C  19,C   6,C   7)     37.2225         0.013143   
    238. D(C  20,C  19,C   6,N   3)     62.7189         0.013143   
    239. D(C  20,C  19,C   6,O  38)   -114.1091         0.013143   
    240. D(C  20,C  19,C   6,C   7)    156.2577         0.013143   
    241. D(C  18,C  19,C   6,N   3)   -173.3924         0.013143   
    242. D(C  18,C  19,C   6,O  38)      9.7796         0.013143   
    243. D(C  18,C  19,C   6,H  15)     98.4233         0.013143   
    244. D(C  18,C  19,C   6,C   7)    -79.8536         0.013143   
    245. D(C  20,C  19,C   6,H  15)    -25.4654         0.013143   
    246. D(H  30,C  19,N   3,C   7)     89.4153         0.001503   
    247. D(H  30,C  19,N   3,C   6)    125.5412         0.001503   
    248. D(H  30,C  19,N   3,C   4)   -142.1502         0.001503   
    249. D(H  30,C  19,N   3,C   2)      0.0062         0.001503   
    250. D(C  20,C  19,N   3,C   7)   -160.3305         0.001503   
    251. D(C  20,C  19,N   3,C   6)   -124.2046         0.001503   
    252. D(C  20,C  19,N   3,C   4)    -31.8960         0.001503   
    253. D(N   3,C  19,C   6,H  15)    -88.1843         0.013143   
    254. D(C  20,C  19,N   3,C   2)    110.2603         0.001503   
    255. D(C  18,C  19,N   3,C   7)    -19.8257         0.001503   
    256. D(C  18,C  19,N   3,C   6)     16.3002         0.001503   
    257. D(C  20,C  19,C  18,N  28)    111.9613         0.014128   
    258. D(C  18,C  19,N   3,C   4)    108.6089         0.001503   
    259. D(C  18,C  19,N   3,C   2)   -109.2348         0.001503   
    260. D(C   6,C  19,N   3,C   7)    -36.1259         0.001503   
    261. D(N   3,C  19,C  18,N  28)    -24.8188         0.014128   
    262. D(C   6,C  19,N   3,C   4)     92.3086         0.001503   
    263. D(C   6,C  19,N   3,C   2)   -125.5350         0.001503   
    264. D(C  25,C  20,C  19,N   3)    -69.9261         0.012231   
    265. D(C  25,C  20,C  19,H  30)      5.1757         0.012231   
    266. D(C  25,C  20,C  19,C  18)    125.6511         0.012231   
    267. D(C  25,C  20,C  19,C   6)   -113.0987         0.012231   
    268. D(C  21,C  20,C  19,N   3)    110.1996         0.012231   
    269. D(C  21,C  20,C  19,H  30)   -174.6986         0.012231   
    270. D(C  21,C  20,C  19,C  18)    -54.2232         0.012231   
    271. D(C  21,C  20,C  19,C   6)     67.0270         0.012231   
    272. D(H  31,C  21,C  20,C  25)   -179.0875         0.026311   
    273. D(H  31,C  21,C  20,C  19)      0.7883         0.026311   
    274. D(C  22,C  21,C  20,C  25)      0.8826         0.026311   
    275. D(C  22,C  21,C  20,C  19)   -179.2416         0.026311   
    276. D(H  32,C  22,C  21,C  20)    179.8546         0.026066   
    277. D(C  23,C  22,C  21,H  31)    179.5197         0.026066   
    278. D(C  23,C  22,C  21,C  20)     -0.4501         0.026066   
    279. D(H  32,C  22,C  21,H  31)     -0.1757         0.026066   
    280. D(H  33,C  23,C  22,H  32)     -0.1004         0.026398   
    281. D(H  33,C  23,C  22,C  21)   -179.7946         0.026398   
    282. D(C  24,C  23,C  22,H  32)    179.6805         0.026398   
    283. D(C  24,C  23,C  22,C  21)     -0.0137         0.026398   
    284. D(H  34,C  24,C  23,H  33)      0.0090         0.026015   
    285. D(H  34,C  24,C  23,C  22)   -179.7742         0.026015   
    286. D(C  25,C  24,C  23,H  33)    179.8119         0.026015   
    287. D(C  25,C  24,C  23,C  22)      0.0287         0.026015   
    288. D(O  26,C  25,C  24,H  34)     -0.1558         0.025011   
    289. D(O  26,C  25,C  24,C  23)   -179.9571         0.025011   
    290. D(C  20,C  25,C  24,H  34)   -179.7901         0.025011   
    291. D(C  20,C  25,C  24,C  23)      0.4086         0.025011   
    292. D(O  26,C  25,C  20,C  21)    179.4863         0.023425   
    293. D(O  26,C  25,C  20,C  19)     -0.3896         0.023425   
    294. D(C  24,C  25,C  20,C  21)     -0.8540         0.023425   
    295. D(C  24,C  25,C  20,C  19)    179.2700         0.023425   
    296. D(C  27,O  26,C  25,C  24)     -4.0640         0.031795   
    297. D(C  27,O  26,C  25,C  20)    175.5812         0.031795   
    298. D(H  37,C  27,O  26,C  25)     62.9818         0.021758   
    299. D(H  36,C  27,O  26,C  25)   -178.0051         0.021758   
    300. D(H  35,C  27,O  26,C  25)    -59.2698         0.021758   
    301. D(O  38,N  28,C  18,C  41)    175.5694         0.043182   
    302. D(O  38,N  28,C  18,C  19)      6.1623         0.043182   
    303. D(O  29,N  28,C  18,C  41)     -4.6315         0.043182   
    304. D(O  29,N  28,C  18,C  19)   -174.0385         0.043182   
    305. D(C   6,O  38,N  28,O  29)   -178.6575         0.040301   
    306. D(C   6,O  38,N  28,C  18)      1.1578         0.040301   
    307. D(N  28,O  38,C   6,N   3)   -169.5421         0.001877   
    308. D(N  28,O  38,C   6,C  19)     -7.2544         0.001877   
    309. D(N  28,O  38,C   6,H  15)   -128.5952         0.001877   
    310. D(N  28,O  38,C   6,C   7)    112.0022         0.001877   
    311. D(F  44,C  41,C  18,N  28)    174.5835         0.014728   
    312. D(F  44,C  41,C  18,C  19)    -16.7371         0.014728   
    313. D(F  43,C  41,C  18,N  28)    -66.6862         0.014728   
    314. D(F  43,C  41,C  18,C  19)    101.9932         0.014728   
    315. D(F  42,C  41,C  18,N  28)     54.4887         0.014728   
    316. D(F  42,C  41,C  18,C  19)   -136.8319         0.014728   
    -----------------------------------------------------------------

Number of atoms                         .... 45
Number of degrees of freedom            .... 316

         *************************************************************
         *                GEOMETRY OPTIMIZATION CYCLE   1            *
         *************************************************************
---------------------------------
CARTESIAN COORDINATES (ANGSTROEM)
---------------------------------
  C     -4.574756    0.124679    0.292323
  C     -3.788550    0.607879    1.335804
  C     -2.472525    0.967619    1.067045
  N     -1.962165    0.869932   -0.159591
  C     -2.703312    0.416049   -1.169741
  C     -4.024067    0.026910   -0.984993
  C     -0.027539    1.269046   -0.629164
  C     -0.101419    2.575036    0.095818
  O      0.205992    2.709366    1.256850
  O     -0.563853    3.536590   -0.682175
  C     -0.680806    4.828749   -0.093764
  H     -5.610260   -0.173832    0.472117
  H     -1.809272    1.346365    1.849918
  H     -2.220997    0.353076   -2.150044
  H     -4.603534   -0.347387   -1.830437
  H     -0.349946    1.221585   -1.665504
  H     -1.078045    5.484144   -0.876093
  H      0.302123    5.188981    0.241484
  C      2.024920    0.146967    0.053323
  C      0.532164    0.047847    0.087064
  C      0.028082   -1.247545   -0.519685
  C      0.406157   -1.618738   -1.808527
  C     -0.059365   -2.798174   -2.389393
  C     -0.911834   -3.622447   -1.658284
  C     -1.297442   -3.277927   -0.362716
  C     -0.826874   -2.092435    0.214542
  O     -1.150255   -1.688351    1.458102
  C     -2.074488   -2.438920    2.209777
  N      2.539687    1.063203   -0.747520
  O      3.737826    1.226261   -0.988265
  H      0.195165    0.099257    1.131971
  H      1.082568   -0.964829   -2.367109
  H      0.246105   -3.071257   -3.401614
  H     -1.284920   -4.552634   -2.094328
  H     -1.962390   -3.937757    0.195076
  H     -3.047644   -2.506361    1.695863
  H     -2.206600   -1.906640    3.159644
  H     -1.699992   -3.455669    2.412797
  O      1.674858    1.858995   -1.321258
  H     -1.367991    4.799057    0.763836
  H     -4.180364    0.701882    2.349869
  C      2.918020   -0.861329    0.669581
  F      3.944137   -0.331401    1.347134
  F      3.461184   -1.708343   -0.227097
  F      2.219299   -1.614967    1.530449

----------------------------
CARTESIAN COORDINATES (A.U.)
----------------------------
  NO LB      ZA    FRAG     MASS         X           Y           Z
   0 C     6.0000    0    12.011   -8.645036    0.235609    0.552410
   1 C     6.0000    0    12.011   -7.159322    1.148725    2.524304
   2 C     6.0000    0    12.011   -4.672395    1.828535    2.016423
   3 N     7.0000    0    14.007   -3.707954    1.643933   -0.301583
   4 C     6.0000    0    12.011   -5.108519    0.786219   -2.210490
   5 C     6.0000    0    12.011   -7.604385    0.050853   -1.861367
   6 C     6.0000    0    12.011   -0.052041    2.398149   -1.188948
   7 C     6.0000    0    12.011   -0.191654    4.866113    0.181070
   8 O     8.0000    0    15.999    0.389268    5.119960    2.375102
   9 O     8.0000    0    15.999   -1.065528    6.683187   -1.289124
  10 C     6.0000    0    12.011   -1.286537    9.125013   -0.177188
  11 H     1.0000    0     1.008  -10.601855   -0.328495    0.892172
  12 H     1.0000    0     1.008   -3.419029    2.544261    3.495838
  13 H     1.0000    0     1.008   -4.197076    0.667217   -4.062994
  14 H     1.0000    0     1.008   -8.699419   -0.656466   -3.459025
  15 H     1.0000    0     1.008   -0.661302    2.308461   -3.147346
  16 H     1.0000    0     1.008   -2.037210   10.363530   -1.655576
  17 H     1.0000    0     1.008    0.570930    9.805753    0.456339
  18 C     6.0000    0    12.011    3.826544    0.277727    0.100766
  19 C     6.0000    0    12.011    1.005644    0.090418    0.164527
  20 C     6.0000    0    12.011    0.053067   -2.357518   -0.982062
  21 C     6.0000    0    12.011    0.767525   -3.058972   -3.417621
  22 C     6.0000    0    12.011   -0.112184   -5.287783   -4.515298
  23 C     6.0000    0    12.011   -1.723117   -6.845433   -3.133703
  24 C     6.0000    0    12.011   -2.451810   -6.194384   -0.685434
  25 C     6.0000    0    12.011   -1.562565   -3.954129    0.405426
  26 O     8.0000    0    15.999   -2.173667   -3.190521    2.755413
  27 C     6.0000    0    12.011   -3.920214   -4.608891    4.175873
  28 N     7.0000    0    14.007    4.799313    2.009162   -1.412608
  29 O     8.0000    0    15.999    7.063467    2.317297   -1.867550
  30 H     1.0000    0     1.008    0.368808    0.187569    2.139115
  31 H     1.0000    0     1.008    2.045757   -1.823263   -4.473188
  32 H     1.0000    0     1.008    0.465071   -5.803835   -6.428119
  33 H     1.0000    0     1.008   -2.428147   -8.603231   -3.957706
  34 H     1.0000    0     1.008   -3.708380   -7.441282    0.368640
  35 H     1.0000    0     1.008   -5.759213   -4.736336    3.204717
  36 H     1.0000    0     1.008   -4.169870   -3.603027    5.970862
  37 H     1.0000    0     1.008   -3.212519   -6.530268    4.559526
  38 O     8.0000    0    15.999    3.165023    3.512991   -2.496816
  39 H     1.0000    0     1.008   -2.585128    9.068903    1.443441
  40 H     1.0000    0     1.008   -7.899743    1.326365    4.440609
  41 C     6.0000    0    12.011    5.514259   -1.627676    1.265325
  42 F     9.0000    0    18.998    7.453339   -0.626257    2.545714
  43 F     9.0000    0    18.998    6.540690   -3.228300   -0.429151
  44 F     9.0000    0    18.998    4.193867   -3.051845    2.892129

--------------------------------
INTERNAL COORDINATES (ANGSTROEM)
--------------------------------
 C      0   0   0     0.000000000000     0.00000000     0.00000000
 C      1   0   0     1.393002050177     0.00000000     0.00000000
 C      2   1   0     1.390527262698   118.62758160     0.00000000
 N      3   2   1     1.332158382500   121.43821992     0.60620459
 C      4   3   2     1.332558319849   120.65752185   359.72765767
 C      5   4   3     1.389228114764   121.55847046   359.82370064
 C      4   3   2     2.030410930625   124.30310418   183.64150809
 C      7   4   3     1.495549074696    90.71469708   310.49136914
 O      8   7   4     1.208528599928   123.38112684    92.41432802
 O      8   7   4     1.320494001244   111.56623643   273.62954165
 C     10   8   7     1.424633423169   116.47916929   179.84232925
 H      1   2   3     1.092567267299   120.42580113   179.52422546
 H      3   2   1     1.093729038041   121.67939524   180.41191691
 H      5   4   3     1.094343332672   116.97026286   180.48448849
 H      6   5   4     1.091171757990   119.86262343   180.43249262
 H      7   4   3     1.086369833791    85.94336913   191.39376505
 H     11  10   8     1.095162131096   106.11277663   180.21452365
 H     11  10   8     1.099230519213   110.47497135    60.71613922
 C      7   4   3     2.436685809474   130.33721775    64.98815425
 C     19   7   4     1.496423638218    36.54072838     8.65172510
 C     20  19   7     1.516668535109   112.27797579   123.72448975
 C     21  20  19     1.393498708230   120.48720364   305.77678874
 C     22  21  20     1.394699007147   121.32585963   180.75843105
 C     23  22  21     1.393072052828   119.08093552   359.54991554
 C     24  23  22     1.394949462414   120.69388002     0.00000000
 C     25  24  23     1.400018686751   119.94480510     0.02870413
 O     26  25  24     1.346959770675   123.64203328   180.04286781
 C     27  26  25     1.408039689666   119.37589322   355.93596937
 N     19   7   4     1.321295948164    80.73932753   178.01117164
 O     29  19   7     1.232916513682   126.06222850   178.89713713
 H     20  19   7     1.099109618168   108.91693346   243.99576841
 H     22  21  20     1.094140151866   118.73183820     0.78830571
 H     23  22  21     1.092006226461   120.27560350   179.85457175
 H     24  23  22     1.092966325328   120.20383385   180.20544348
 H     25  24  23     1.090258403714   119.62287801   180.22578550
 H     28  27  26     1.102582644618   111.29229142   300.73016110
 H     28  27  26     1.096824004402   106.42090459   181.99485097
 H     28  27  26     1.102380561973   111.52944816    62.98184885
 O     29  19   7     1.307818565073   115.48134410   359.09794515
 H     11  10   8     1.099355538072   110.42719693   299.73092101
 H      2   1   3     1.091184035271   121.55855892   180.40320301
 C     19   7   4     1.481236765740   159.69525879     6.90940121
 F     42  19   7     1.338961482150   113.77755994   224.40715969
 F     42  19   7     1.347772711838   113.20317254   103.23227638
 F     42  19   7     1.340624848460   109.60751269   344.50195964

---------------------------
INTERNAL COORDINATES (A.U.)
---------------------------
 C      0   0   0     0.000000000000     0.00000000     0.00000000
 C      1   0   0     2.632392378825     0.00000000     0.00000000
 C      2   1   0     2.627715708250   118.62758160     0.00000000
 N      3   2   1     2.517414509933   121.43821992     0.60620459
 C      4   3   2     2.518170281992   120.65752185   359.72765767
 C      5   4   3     2.625260674447   121.55847046   359.82370064
 C      4   3   2     3.836920598201   124.30310418   183.64150809
 C      7   4   3     2.826178171015    90.71469708   310.49136914
 O      8   7   4     2.283788078876   123.38112684    92.41432802
 O      8   7   4     2.495372023837   111.56623643   273.62954165
 C     10   8   7     2.692167011021   116.47916929   179.84232925
 H      1   2   3     2.064652918082   120.42580113   179.52422546
 H      3   2   1     2.066848346615   121.67939524   180.41191691
 H      5   4   3     2.068009195232   116.97026286   180.48448849
 H      6   5   4     2.062015787670   119.86262343   180.43249262
 H      7   4   3     2.052941466018    85.94336913   191.39376505
 H     11  10   8     2.069556500013   106.11277663   180.21452365
 H     11  10   8     2.077244639360   110.47497135    60.71613922
 C      7   4   3     4.604668854318   130.33721775    64.98815425
 C     19   7   4     2.827830856558    36.54072838     8.65172510
 C     20  19   7     2.866088167291   112.27797579   123.72448975
 C     21  20  19     2.633330926527   120.48720364   305.77678874
 C     22  21  20     2.635599162759   121.32585963   180.75843105
 C     23  22  21     2.632524664665   119.08093552   359.54991554
 C     24  23  22     2.636072454622   120.69388002     0.00000000
 C     25  24  23     2.645651900331   119.94480510     0.02870413
 O     26  25  24     2.545385079985   123.64203328   180.04286781
 C     27  26  25     2.660809399160   119.37589322   355.93596937
 N     19   7   4     2.496887483889    80.73932753   178.01117164
 O     29  19   7     2.329874556848   126.06222850   178.89713713
 H     20  19   7     2.077016169497   108.91693346   243.99576841
 H     22  21  20     2.067625239154   118.73183820     0.78830571
 H     23  22  21     2.063592704548   120.27560350   179.85457175
 H     24  23  22     2.065407028468   120.20383385   180.20544348
 H     25  24  23     2.060289798225   119.62287801   180.22578550
 H     28  27  26     2.083579238343   111.29229142   300.73016110
 H     28  27  26     2.072696985431   106.42090459   181.99485097
 H     28  27  26     2.083197357488   111.52944816    62.98184885
 O     29  19   7     2.471418920845   115.48134410   359.09794515
 H     11  10   8     2.077480890765   110.42719693   299.73092101
 H      2   1   3     2.062038988369   121.55855892   180.40320301
 C     19   7   4     2.799131826744   159.69525879     6.90940121
 F     42  19   7     2.530270505133   113.77755994   224.40715969
 F     42  19   7     2.546921316147   113.20317254   103.23227638
 F     42  19   7     2.533413811920   109.60751269   344.50195964

---------------------
BASIS SET INFORMATION
---------------------
There are 5 groups of distinct atoms

 Group   1 Type C   : 11s6p2d1f contracted to 5s3p2d1f pattern {62111/411/11/1}
 Group   2 Type N   : 11s6p2d1f contracted to 5s3p2d1f pattern {62111/411/11/1}
 Group   3 Type O   : 11s6p2d1f contracted to 5s3p2d1f pattern {62111/411/11/1}
 Group   4 Type H   : 5s1p contracted to 3s1p pattern {311/1}
 Group   5 Type F   : 11s6p2d1f contracted to 5s3p2d1f pattern {62111/411/11/1}

Atom   0C    basis set group =>   1
Atom   1C    basis set group =>   1
Atom   2C    basis set group =>   1
Atom   3N    basis set group =>   2
Atom   4C    basis set group =>   1
Atom   5C    basis set group =>   1
Atom   6C    basis set group =>   1
Atom   7C    basis set group =>   1
Atom   8O    basis set group =>   3
Atom   9O    basis set group =>   3
Atom  10C    basis set group =>   1
Atom  11H    basis set group =>   4
Atom  12H    basis set group =>   4
Atom  13H    basis set group =>   4
Atom  14H    basis set group =>   4
Atom  15H    basis set group =>   4
Atom  16H    basis set group =>   4
Atom  17H    basis set group =>   4
Atom  18C    basis set group =>   1
Atom  19C    basis set group =>   1
Atom  20C    basis set group =>   1
Atom  21C    basis set group =>   1
Atom  22C    basis set group =>   1
Atom  23C    basis set group =>   1
Atom  24C    basis set group =>   1
Atom  25C    basis set group =>   1
Atom  26O    basis set group =>   3
Atom  27C    basis set group =>   1
Atom  28N    basis set group =>   2
Atom  29O    basis set group =>   3
Atom  30H    basis set group =>   4
Atom  31H    basis set group =>   4
Atom  32H    basis set group =>   4
Atom  33H    basis set group =>   4
Atom  34H    basis set group =>   4
Atom  35H    basis set group =>   4
Atom  36H    basis set group =>   4
Atom  37H    basis set group =>   4
Atom  38O    basis set group =>   3
Atom  39H    basis set group =>   4
Atom  40H    basis set group =>   4
Atom  41C    basis set group =>   1
Atom  42F    basis set group =>   5
Atom  43F    basis set group =>   5
Atom  44F    basis set group =>   5
---------------------------------
AUXILIARY/J BASIS SET INFORMATION
---------------------------------
There are 5 groups of distinct atoms

 Group   1 Type C   : 12s5p4d2f1g contracted to 6s4p3d1f1g pattern {711111/2111/211/2/1}
 Group   2 Type N   : 12s5p4d2f1g contracted to 6s4p3d1f1g pattern {711111/2111/211/2/1}
 Group   3 Type O   : 12s5p4d2f1g contracted to 6s4p3d1f1g pattern {711111/2111/211/2/1}
 Group   4 Type H   : 5s2p1d contracted to 3s1p1d pattern {311/2/1}
 Group   5 Type F   : 12s5p4d2f1g contracted to 6s4p3d1f1g pattern {711111/2111/211/2/1}

Atom   0C    basis set group =>   1
Atom   1C    basis set group =>   1
Atom   2C    basis set group =>   1
Atom   3N    basis set group =>   2
Atom   4C    basis set group =>   1
Atom   5C    basis set group =>   1
Atom   6C    basis set group =>   1
Atom   7C    basis set group =>   1
Atom   8O    basis set group =>   3
Atom   9O    basis set group =>   3
Atom  10C    basis set group =>   1
Atom  11H    basis set group =>   4
Atom  12H    basis set group =>   4
Atom  13H    basis set group =>   4
Atom  14H    basis set group =>   4
Atom  15H    basis set group =>   4
Atom  16H    basis set group =>   4
Atom  17H    basis set group =>   4
Atom  18C    basis set group =>   1
Atom  19C    basis set group =>   1
Atom  20C    basis set group =>   1
Atom  21C    basis set group =>   1
Atom  22C    basis set group =>   1
Atom  23C    basis set group =>   1
Atom  24C    basis set group =>   1
Atom  25C    basis set group =>   1
Atom  26O    basis set group =>   3
Atom  27C    basis set group =>   1
Atom  28N    basis set group =>   2
Atom  29O    basis set group =>   3
Atom  30H    basis set group =>   4
Atom  31H    basis set group =>   4
Atom  32H    basis set group =>   4
Atom  33H    basis set group =>   4
Atom  34H    basis set group =>   4
Atom  35H    basis set group =>   4
Atom  36H    basis set group =>   4
Atom  37H    basis set group =>   4
Atom  38O    basis set group =>   3
Atom  39H    basis set group =>   4
Atom  40H    basis set group =>   4
Atom  41C    basis set group =>   1
Atom  42F    basis set group =>   5
Atom  43F    basis set group =>   5
Atom  44F    basis set group =>   5


           ************************************************************
           *        Program running with 24 parallel MPI-processes    *
           *              working on a common directory               *
           ************************************************************
------------------------------------------------------------------------------
                           ORCA GTO INTEGRAL CALCULATION
                           -- RI-GTO INTEGRALS CHOSEN --
------------------------------------------------------------------------------
------------------------------------------------------------------------------
                   ___                                                        
                  /   \      - P O W E R E D   B Y -                         
                 /     \                                                     
                 |  |  |   _    _      __       _____    __    __             
                 |  |  |  | |  | |    /  \     |  _  \  |  |  /  |          
                  \  \/   | |  | |   /    \    | | | |  |  | /  /          
                 / \  \   | |__| |  /  /\  \   | |_| |  |  |/  /          
                |  |  |   |  __  | /  /__\  \  |    /   |      \           
                |  |  |   | |  | | |   __   |  |    \   |  |\   \          
                \     /   | |  | | |  |  |  |  | |\  \  |  | \   \       
                 \___/    |_|  |_| |__|  |__|  |_| \__\ |__|  \__/        
                                                                              
                      - O R C A' S   B I G   F R I E N D -                    
                                      &                                       
                       - I N T E G R A L  F E E D E R -                       
                                                                              
 v1 FN, 2020, v2 2021                                                         
------------------------------------------------------------------------------


Reading SHARK input file TS2_CF3/TS2_CF3.SHARKINP.tmp ... ok
----------------------
SHARK INTEGRAL PACKAGE
----------------------

Number of atoms                             ...     45
Number of basis functions                   ...    970
Number of shells                            ...    376
Maximum angular momentum                    ...      3
Integral batch strategy                     ... SHARK/LIBINT Hybrid
RI-J (if used) integral strategy            ... SPLIT-RIJ (Revised 2003 algorithm where possible)
Printlevel                                  ...      1
Contraction scheme used                     ... SEGMENTED contraction
Coulomb Range Separation                    ... NOT USED
Exchange Range Separation                   ... NOT USED
Finite Nucleus Model                        ... NOT USED
Auxiliary Coulomb fitting basis             ... AVAILABLE
   # of basis functions in Aux-J            ...   1559
   # of shells in Aux-J                     ...    505
   Maximum angular momentum in Aux-J        ...      4
Auxiliary J/K fitting basis                 ... NOT available
Auxiliary Correlation fitting basis         ... NOT available
Auxiliary 'external' fitting basis          ... NOT available
Integral threshold                          ...     2.500000e-11
Primitive cut-off                           ...     2.500000e-12
Primitive pair pre-selection threshold      ...     2.500000e-12

Calculating pre-screening integrals         ... done (  0.1 sec) Dimension = 376
Organizing shell pair data                  ... done (  1.5 sec)
Shell pair information
Total number of shell pairs                 ...     70876
Shell pairs after pre-screening             ...     49687
Total number of primitive shell pairs       ...    220120
Primitive shell pairs kept                  ...     99409
          la=0 lb=0:  12260 shell pairs
          la=1 lb=0:  14240 shell pairs
          la=1 lb=1:   4127 shell pairs
          la=2 lb=0:   7161 shell pairs
          la=2 lb=1:   4243 shell pairs
          la=2 lb=2:   1083 shell pairs
          la=3 lb=0:   3309 shell pairs
          la=3 lb=1:   2018 shell pairs
          la=3 lb=2:    995 shell pairs
          la=3 lb=3:    251 shell pairs

Calculating one electron integrals          ... done (  0.1 sec)
Calculating RI/J V-Matrix + Cholesky decomp.... done (  0.2 sec)
Calculating Nuclear repulsion               ... done (  0.0 sec) ENN=   2955.862267903813 Eh

SHARK setup successfully completed in   3.4 seconds

Maximum memory used throughout the entire GTOINT-calculation: 75.4 MB


           ************************************************************
           *        Program running with 24 parallel MPI-processes    *
           *              working on a common directory               *
           ************************************************************
-------------------------------------------------------------------------------
                                 ORCA SCF
-------------------------------------------------------------------------------

------------
SCF SETTINGS
------------
Hamiltonian:
 Density Functional     Method          .... DFT(GTOs)
 Exchange Functional    Exchange        .... PBE
   PBE kappa parameter   XKappa         ....  0.804000
   PBE mue parameter    XMuePBE         ....  0.219520
 Correlation Functional Correlation     .... PBE
   PBE beta parameter  CBetaPBE         ....  0.066725
 LDA part of GGA corr.  LDAOpt          .... PW91-LDA
 Gradients option       PostSCFGGA      .... off
 Hybrid DFT is turned on
   Fraction HF Exchange ScalHFX         ....  0.250000
   Scaling of DF-GGA-X  ScalDFX         ....  0.750000
   Scaling of DF-GGA-C  ScalDFC         ....  1.000000
   Scaling of DF-LDA-C  ScalLDAC        ....  1.000000
   Perturbative correction              ....  0.000000
   Density functional embedding theory  .... OFF
   NL short-range parameter             ....  6.900000
 RI-approximation to the Coulomb term is turned on
   Number of AuxJ basis functions       .... 1559
   RIJ-COSX (HFX calculated with COS-X)).... on


General Settings:
 Integral files         IntName         .... TS2_CF3/TS2_CF3
 Hartree-Fock type      HFTyp           .... RHF
 Total Charge           Charge          ....    0
 Multiplicity           Mult            ....    1
 Number of Electrons    NEL             ....  206
 Basis Dimension        Dim             ....  970
 Nuclear Repulsion      ENuc            ....   2955.8622679038 Eh

Convergence Acceleration:
 DIIS                   CNVDIIS         .... on
   Start iteration      DIISMaxIt       ....    12
   Startup error        DIISStart       ....  0.200000
   # of expansion vecs  DIISMaxEq       ....     5
   Bias factor          DIISBfac        ....   1.050
   Max. coefficient     DIISMaxC        ....  10.000
 Trust-Rad. Augm. Hess. CNVTRAH         .... auto
   Auto Start mean grad. ratio tolernc. ....  1.125000
   Auto Start start iteration           ....    20
   Auto Start num. interpolation iter.  ....    10
   Max. Number of Micro iterations      ....    16
   Max. Number of Macro iterations      .... Maxiter - #DIIS iter
   Number of Davidson start vectors     ....     2
   Converg. threshold I  (grad. norm)   ....   1.000e-05
   Converg. threshold II (energy diff.) ....   1.000e-08
   Grad. Scal. Fac. for Micro threshold ....   0.100
   Minimum threshold for Micro iter.    ....   0.010
   NR start threshold (gradient norm)   ....   0.001
   Initial trust radius                 ....   0.400
   Minimum AH scaling param. (alpha)    ....   1.000
   Maximum AH scaling param. (alpha)    .... 1000.000
   Orbital update algorithm             .... Taylor
   White noise on init. David. guess    .... on
   Maximum white noise                  ....   0.010
   Quad. conv. algorithm                .... NR
 SOSCF                  CNVSOSCF        .... on
   Start iteration      SOSCFMaxIt      ....   150
   Startup grad/error   SOSCFStart      ....  0.003300
 Level Shifting         CNVShift        .... on
   Level shift para.    LevelShift      ....    0.2500
   Turn off err/grad.   ShiftErr        ....    0.0010
 Zerner damping         CNVZerner       .... off
 Static damping         CNVDamp         .... on
   Fraction old density DampFac         ....    0.7000
   Max. Damping (<1)    DampMax         ....    0.9800
   Min. Damping (>=0)   DampMin         ....    0.0000
   Turn off err/grad.   DampErr         ....    0.1000
 Fernandez-Rico         CNVRico         .... off

SCF Procedure:
 Maximum # iterations   MaxIter         ....   800
 SCF integral mode      SCFMode         .... Direct
   Integral package                     .... SHARK and LIBINT hybrid scheme
 Reset frequency        DirectResetFreq ....    20
 Integral Threshold     Thresh          ....  2.500e-11 Eh
 Primitive CutOff       TCut            ....  2.500e-12 Eh

Convergence Tolerance:
 Convergence Check Mode ConvCheckMode   .... Total+1el-Energy
 Convergence forced     ConvForced      .... 0
 Energy Change          TolE            ....  1.000e-08 Eh
 1-El. energy change                    ....  1.000e-05 Eh
 Orbital Gradient       TolG            ....  1.000e-05
 Orbital Rotation angle TolX            ....  1.000e-05
 DIIS Error             TolErr          ....  5.000e-07


Diagonalization of the overlap matrix:
Smallest eigenvalue                        ... 5.792e-06
Time for diagonalization                   ...    0.297 sec
Threshold for overlap eigenvalues          ... 1.000e-08
Number of eigenvalues below threshold      ... 0
Time for construction of square roots      ...    0.166 sec
Total time needed                          ...    0.471 sec

Time for model grid setup =    0.369 sec

------------------------------
INITIAL GUESS: MODEL POTENTIAL
------------------------------
Loading Hartree-Fock densities                     ... done
Calculating cut-offs                               ... done
Initializing the effective Hamiltonian             ... done
Setting up the integral package (SHARK)            ... done
Starting the Coulomb interaction                   ... done (   0.7 sec)
Reading the grid                                   ... done
Mapping shells                                     ... done
Starting the XC term evaluation                    ... done (   0.3 sec)
  promolecular density results
     # of electrons  =    205.990346302
     EX              =   -180.967509362
     EC              =     -7.024392814
     EX+EC           =   -187.991902176
Transforming the Hamiltonian                       ... done (   0.2 sec)
Diagonalizing the Hamiltonian                      ... done (   0.3 sec)
Back transforming the eigenvectors                 ... done (   0.1 sec)
Now organizing SCF variables                       ... done
                      ------------------
                      INITIAL GUESS DONE (   2.1 sec)
                      ------------------
-------------------
DFT GRID GENERATION
-------------------

General Integration Accuracy     IntAcc      ... 4.388
Radial Grid Type                 RadialGrid  ... OptM3 with GC (2021)
Angular Grid (max. ang.)         AngularGrid ... 4 (Lebedev-302)
Angular grid pruning method      GridPruning ... 4 (adaptive)
Weight generation scheme         WeightScheme... Becke
Basis function cutoff            BFCut       ... 1.0000e-11
Integration weight cutoff        WCut        ... 1.0000e-14
Angular grids for H and He will be reduced by one unit
Partially contracted basis set               ... off
Rotationally invariant grid construction     ... off

Total number of grid points                  ...   221102
Total number of batches                      ...     3478
Average number of points per batch           ...       63
Average number of grid points per atom       ...     4913
Time for grid setup =    1.628 sec

--------------------
COSX GRID GENERATION
--------------------

GRIDX 1
-------
General Integration Accuracy     IntAcc      ... 3.816
Radial Grid Type                 RadialGrid  ... OptM3 with GC (2021)
Angular Grid (max. ang.)         AngularGrid ... 1 (Lebedev-50)
Angular grid pruning method      GridPruning ... 4 (adaptive)
Weight generation scheme         WeightScheme... Becke
Basis function cutoff            BFCut       ... 1.0000e-11
Integration weight cutoff        WCut        ... 1.0000e-14
Angular grids for H and He will be reduced by one unit
Partially contracted basis set               ... on
Rotationally invariant grid construction     ... off

Total number of grid points                  ...    27958
Total number of batches                      ...      458
Average number of points per batch           ...       61
Average number of grid points per atom       ...      621
UseSFitting                                  ... on

GRIDX 2
-------
General Integration Accuracy     IntAcc      ... 4.020
Radial Grid Type                 RadialGrid  ... OptM3 with GC (2021)
Angular Grid (max. ang.)         AngularGrid ... 2 (Lebedev-110)
Angular grid pruning method      GridPruning ... 4 (adaptive)
Weight generation scheme         WeightScheme... Becke
Basis function cutoff            BFCut       ... 1.0000e-11
Integration weight cutoff        WCut        ... 1.0000e-14
Angular grids for H and He will be reduced by one unit
Partially contracted basis set               ... on
Rotationally invariant grid construction     ... off

Total number of grid points                  ...    61230
Total number of batches                      ...      981
Average number of points per batch           ...       62
Average number of grid points per atom       ...     1361
UseSFitting                                  ... on

GRIDX 3
-------
General Integration Accuracy     IntAcc      ... 4.338
Radial Grid Type                 RadialGrid  ... OptM3 with GC (2021)
Angular Grid (max. ang.)         AngularGrid ... 3 (Lebedev-194)
Angular grid pruning method      GridPruning ... 4 (adaptive)
Weight generation scheme         WeightScheme... Becke
Basis function cutoff            BFCut       ... 1.0000e-11
Integration weight cutoff        WCut        ... 1.0000e-14
Angular grids for H and He will be reduced by one unit
Partially contracted basis set               ... on
Rotationally invariant grid construction     ... off

Total number of grid points                  ...   133927
Total number of batches                      ...     2114
Average number of points per batch           ...       63
Average number of grid points per atom       ...     2976
UseSFitting                                  ... on

Time for X-Grid setup             =    3.115 sec


--------------------
CPCM SOLVATION MODEL
--------------------
CPCM parameters:
  Epsilon                                         ...      47.2000
  Refrac                                          ...       1.4790
  Rsolv                                           ...       1.3000
  Surface type                                    ... GAUSSIAN VDW
  Epsilon function type                           ...         CPCM
Radii:
 Radius for C  used is    3.8550 Bohr (=   2.0400 Ang.)
 Radius for N  used is    3.5149 Bohr (=   1.8600 Ang.)
 Radius for O  used is    3.4469 Bohr (=   1.8240 Ang.)
 Radius for H  used is    2.4944 Bohr (=   1.3200 Ang.)
 Radius for F  used is    3.3335 Bohr (=   1.7640 Ang.)
Calculating surface                               ...        done! (  0.0s)
GEPOL surface points                              ...         2307
GEPOL Volume                                      ...    2845.2605
GEPOL Surface-area                                ...    1388.6566
Calculating surface distance matrix               ...        done! (  0.1s)
Performing Cholesky decomposition & store         ...        done! (  0.3s)
Overall time for CPCM initialization              ...                 0.4s
--------------
SCF ITERATIONS
--------------
ITER       Energy         Delta-E        Max-DP      RMS-DP      [F,P]     Damp
               ***  Starting incremental Fock matrix formation  ***
  0  -1479.5823691058   0.000000000000 0.33299445  0.00077820  0.2731211 0.7000
  1  -1479.8317289768  -0.249359870964 0.26231560  0.00064786  0.1115638 0.7000
                               ***Turning on DIIS***
  2  -1479.9306880332  -0.098959056399 0.28405340  0.00107434  0.0334037 0.0000
  3  -1480.0979949052  -0.167306871993 0.23601272  0.00052501  0.0536558 0.0000
  4  -1480.1261830067  -0.028188101534 0.02915921  0.00017087  0.0191496 0.0000
  5  -1480.1280947038  -0.001911697042 0.02273127  0.00006116  0.0054863 0.0000
                      *** Initiating the SOSCF procedure ***
                           *** Shutting down DIIS ***
                      *** Re-Reading the Fockian *** 
                      *** Removing any level shift *** 
ITER      Energy       Delta-E        Grad      Rot      Max-DP    RMS-DP
  6  -1480.12823321  -0.0001385093  0.000239  0.000239  0.003417  0.000016
               *** Restarting incremental Fock matrix formation ***
  7  -1480.12825412  -0.0000209099  0.000171  0.000706  0.003033  0.000026
  8  -1480.12825365   0.0000004709  0.000180  0.000289  0.000523  0.000006
  9  -1480.12825670  -0.0000030518  0.000050  0.000147  0.000552  0.000005
 10  -1480.12825652   0.0000001827  0.000075  0.000086  0.000367  0.000001
 11  -1480.12825681  -0.0000002918  0.000007  0.000024  0.000279  0.000001
 12  -1480.12825682  -0.0000000052  0.000009  0.000013  0.000152  0.000001
                  ***Gradient check signals convergence***
              ***Rediagonalizing the Fockian in SOSCF/NRSCF***

               *****************************************************
               *                     SUCCESS                       *
               *           SCF CONVERGED AFTER  13 CYCLES          *
               *****************************************************

Old exchange energy                            =    -45.959532314 Eh
New exchange energy                            =    -45.959509450 Eh
Exchange energy change after final integration =      0.000022864 Eh
Total energy after final integration           =  -1480.128233961 Eh
Final COS-X integration done in                =    21.256 sec

----------------
TOTAL SCF ENERGY
----------------

Total Energy       :        -1480.12823396 Eh          -40276.33686 eV

Components:
Nuclear Repulsion  :         2955.86226790 Eh           80433.10145 eV
Electronic Energy  :        -4435.99050186 Eh         -120709.43831 eV
One Electron Energy:        -7911.70483415 Eh         -215288.43359 eV
Two Electron Energy:         3475.71433228 Eh           94578.99528 eV
Max COSX asymmetry :            0.00000334 Eh               0.00009 eV
CPCM Dielectric    :           -0.04828131 Eh              -1.31380 eV

Virial components:
Potential Energy   :        -2953.83038739 Eh          -80377.81117 eV
Kinetic Energy     :         1473.70215342 Eh           40101.47431 eV
Virial Ratio       :            2.00436050


DFT components:
N(Alpha)           :      103.000114319200 electrons
N(Beta)            :      103.000114319200 electrons
N(Total)           :      206.000228638400 electrons
E(X)               :     -137.724167081276 Eh       
E(C)               :       -7.013599069958 Eh       
E(XC)              :     -144.737766151234 Eh       
DFET-embed. en.    :        0.000000000000 Eh       
CPCM Solvation Model Properties:
Surface-charge          :           -0.02669244
Charge-correction       :           -0.00017761 Eh              -0.00483 eV
Free-energy (cav+disp)  :  This term is not implemented in the current solvation scheme

---------------
SCF CONVERGENCE
---------------

  Last Energy change         ...   -6.3587e-09  Tolerance :   1.0000e-08
  Last MAX-Density change    ...    1.6653e-15  Tolerance :   1.0000e-07
  Last RMS-Density change    ...    1.2725e-17  Tolerance :   5.0000e-09
  Last Orbital Gradient      ...    1.6685e-06  Tolerance :   1.0000e-05
  Last Orbital Rotation      ...    4.2146e-06  Tolerance :   1.0000e-05

             **** THE GBW FILE WAS UPDATED (TS2_CF3/TS2_CF3.gbw) ****
             **** DENSITY TS2_CF3/TS2_CF3.scfp WAS UPDATED ****
             **** ENERGY FILE WAS UPDATED (TS2_CF3/TS2_CF3.en.tmp) ****
             **** THE GBW FILE WAS UPDATED (TS2_CF3/TS2_CF3.gbw) ****
             **** DENSITY TS2_CF3/TS2_CF3.scfp WAS UPDATED ****
----------------
ORBITAL ENERGIES
----------------

  NO   OCC          E(Eh)            E(eV) 
   0   2.0000     -24.809377      -675.0975 
   1   2.0000     -24.804482      -674.9643 
   2   2.0000     -24.801840      -674.8924 
   3   2.0000     -19.269841      -524.3590 
   4   2.0000     -19.247895      -523.7619 
   5   2.0000     -19.231315      -523.3107 
   6   2.0000     -19.210588      -522.7467 
   7   2.0000     -19.206048      -522.6231 
   8   2.0000     -14.590050      -397.0154 
   9   2.0000     -14.442585      -393.0027 
  10   2.0000     -10.479300      -285.1563 
  11   2.0000     -10.371940      -282.2348 
  12   2.0000     -10.334813      -281.2246 
  13   2.0000     -10.295688      -280.1599 
  14   2.0000     -10.287876      -279.9473 
  15   2.0000     -10.287220      -279.9295 
  16   2.0000     -10.275273      -279.6044 
  17   2.0000     -10.272530      -279.5297 
  18   2.0000     -10.270890      -279.4851 
  19   2.0000     -10.269940      -279.4593 
  20   2.0000     -10.263023      -279.2711 
  21   2.0000     -10.253573      -279.0139 
  22   2.0000     -10.253194      -279.0036 
  23   2.0000     -10.243981      -278.7529 
  24   2.0000     -10.235302      -278.5167 
  25   2.0000     -10.234321      -278.4900 
  26   2.0000     -10.230404      -278.3834 
  27   2.0000     -10.226404      -278.2746 
  28   2.0000      -1.355467       -36.8841 
  29   2.0000      -1.266259       -34.4567 
  30   2.0000      -1.259628       -34.2762 
  31   2.0000      -1.229018       -33.4433 
  32   2.0000      -1.161643       -31.6099 
  33   2.0000      -1.112781       -30.2803 
  34   2.0000      -1.069001       -29.0890 
  35   2.0000      -1.051525       -28.6135 
  36   2.0000      -1.015922       -27.6447 
  37   2.0000      -0.909694       -24.7540 
  38   2.0000      -0.881586       -23.9892 
  39   2.0000      -0.856151       -23.2971 
  40   2.0000      -0.833912       -22.6919 
  41   2.0000      -0.813005       -22.1230 
  42   2.0000      -0.796106       -21.6631 
  43   2.0000      -0.779576       -21.2133 
  44   2.0000      -0.755383       -20.5550 
  45   2.0000      -0.750017       -20.4090 
  46   2.0000      -0.719606       -19.5815 
  47   2.0000      -0.695680       -18.9304 
  48   2.0000      -0.679711       -18.4959 
  49   2.0000      -0.666264       -18.1300 
  50   2.0000      -0.653549       -17.7840 
  51   2.0000      -0.628537       -17.1034 
  52   2.0000      -0.621072       -16.9002 
  53   2.0000      -0.618854       -16.8399 
  54   2.0000      -0.612341       -16.6627 
  55   2.0000      -0.594247       -16.1703 
  56   2.0000      -0.590819       -16.0770 
  57   2.0000      -0.570803       -15.5323 
  58   2.0000      -0.559454       -15.2235 
  59   2.0000      -0.547714       -14.9041 
  60   2.0000      -0.536927       -14.6105 
  61   2.0000      -0.526364       -14.3231 
  62   2.0000      -0.522778       -14.2255 
  63   2.0000      -0.518464       -14.1081 
  64   2.0000      -0.515405       -14.0249 
  65   2.0000      -0.508045       -13.8246 
  66   2.0000      -0.498997       -13.5784 
  67   2.0000      -0.497142       -13.5279 
  68   2.0000      -0.495769       -13.4906 
  69   2.0000      -0.494184       -13.4474 
  70   2.0000      -0.491515       -13.3748 
  71   2.0000      -0.479766       -13.0551 
  72   2.0000      -0.465323       -12.6621 
  73   2.0000      -0.461688       -12.5632 
  74   2.0000      -0.457280       -12.4432 
  75   2.0000      -0.454391       -12.3646 
  76   2.0000      -0.452735       -12.3195 
  77   2.0000      -0.451094       -12.2749 
  78   2.0000      -0.446112       -12.1393 
  79   2.0000      -0.434626       -11.8268 
  80   2.0000      -0.433161       -11.7869 
  81   2.0000      -0.428453       -11.6588 
  82   2.0000      -0.420411       -11.4400 
  83   2.0000      -0.417595       -11.3633 
  84   2.0000      -0.413577       -11.2540 
  85   2.0000      -0.395933       -10.7739 
  86   2.0000      -0.394502       -10.7350 
  87   2.0000      -0.385613       -10.4931 
  88   2.0000      -0.382329       -10.4037 
  89   2.0000      -0.371246       -10.1021 
  90   2.0000      -0.361744        -9.8436 
  91   2.0000      -0.345977        -9.4145 
  92   2.0000      -0.343588        -9.3495 
  93   2.0000      -0.337088        -9.1726 
  94   2.0000      -0.330464        -8.9924 
  95   2.0000      -0.325322        -8.8525 
  96   2.0000      -0.318701        -8.6723 
  97   2.0000      -0.310632        -8.4527 
  98   2.0000      -0.298412        -8.1202 
  99   2.0000      -0.287972        -7.8361 
 100   2.0000      -0.274698        -7.4749 
 101   2.0000      -0.245055        -6.6683 
 102   2.0000      -0.237407        -6.4602 
 103   0.0000      -0.056788        -1.5453 
 104   0.0000      -0.045147        -1.2285 
 105   0.0000      -0.035350        -0.9619 
 106   0.0000      -0.029222        -0.7952 
 107   0.0000      -0.014433        -0.3927 
 108   0.0000       0.002838         0.0772 
 109   0.0000       0.044540         1.2120 
 110   0.0000       0.053145         1.4462 
 111   0.0000       0.062877         1.7110 
 112   0.0000       0.064924         1.7667 
 113   0.0000       0.071429         1.9437 
 114   0.0000       0.079414         2.1610 
 115   0.0000       0.080198         2.1823 
 116   0.0000       0.089392         2.4325 
 117   0.0000       0.094167         2.5624 
 118   0.0000       0.101255         2.7553 
 119   0.0000       0.101622         2.7653 
 120   0.0000       0.113161         3.0793 
 121   0.0000       0.116701         3.1756 
 122   0.0000       0.119608         3.2547 
 123   0.0000       0.122696         3.3387 
 124   0.0000       0.125385         3.4119 
 125   0.0000       0.128682         3.5016 
 126   0.0000       0.130986         3.5643 
 127   0.0000       0.133995         3.6462 
 128   0.0000       0.140992         3.8366 
 129   0.0000       0.142245         3.8707 
 130   0.0000       0.147996         4.0272 
 131   0.0000       0.151891         4.1332 
 132   0.0000       0.155189         4.2229 
 133   0.0000       0.156853         4.2682 
 134   0.0000       0.163705         4.4546 
 135   0.0000       0.168804         4.5934 
 136   0.0000       0.178473         4.8565 
 137   0.0000       0.186778         5.0825 
 138   0.0000       0.200028         5.4430 
 139   0.0000       0.203241         5.5305 
 140   0.0000       0.209008         5.6874 
 141   0.0000       0.212182         5.7738 
 142   0.0000       0.213094         5.7986 
 143   0.0000       0.215930         5.8758 
 144   0.0000       0.218062         5.9338 
 145   0.0000       0.220199         5.9919 
 146   0.0000       0.225778         6.1437 
 147   0.0000       0.227686         6.1957 
 148   0.0000       0.234018         6.3679 
 149   0.0000       0.238252         6.4832 
 150   0.0000       0.240105         6.5336 
 151   0.0000       0.245543         6.6816 
 152   0.0000       0.249649         6.7933 
 153   0.0000       0.250204         6.8084 
 154   0.0000       0.253628         6.9016 
 155   0.0000       0.258554         7.0356 
 156   0.0000       0.260709         7.0943 
 157   0.0000       0.265271         7.2184 
 158   0.0000       0.266022         7.2388 
[...]
 28:    249.82   0.000294    1.49  0.000368  (-0.013080  0.002384  0.013823)
 29:    252.06   0.000316    1.60  0.000392  (-0.016829 -0.007332  0.007401)
 30:    270.17   0.003310   16.73  0.003823  (-0.010499  0.057251 -0.020869)
 31:    306.21   0.000647    3.27  0.000659  ( 0.011939  0.017527  0.014466)
 32:    313.74   0.000416    2.10  0.000414  ( 0.012058 -0.008418  0.014069)
 33:    346.59   0.006522   32.96  0.005873  (-0.050078  0.056084 -0.014814)
 34:    370.80   0.001959    9.90  0.001648  ( 0.012945  0.027228 -0.027192)
 35:    394.22   0.000004    0.02  0.000003  ( 0.001552 -0.000554  0.000690)
 36:    438.36   0.001300    6.57  0.000925  (-0.009464 -0.028116 -0.006711)
 37:    442.36   0.000590    2.98  0.000416  ( 0.004096 -0.014449 -0.013808)
 38:    462.88   0.001368    6.91  0.000922  (-0.004427  0.025078 -0.016545)
 39:    487.89   0.003064   15.49  0.001960  (-0.028333 -0.033812 -0.003749)
 40:    500.73   0.002106   10.64  0.001312  ( 0.008338 -0.016705  0.031044)
 41:    540.33   0.003038   15.35  0.001754  (-0.041691  0.003617 -0.001802)
 42:    563.03   0.000401    2.03  0.000222  (-0.005892  0.013577  0.001774)
 43:    573.53   0.002124   10.74  0.001156  ( 0.012548 -0.023607 -0.021002)
 44:    597.83   0.000837    4.23  0.000437  ( 0.005142  0.002126 -0.020153)
 45:    615.92   0.004332   21.89  0.002195  ( 0.039875  0.019555  0.014910)
 46:    631.02   0.006981   35.28  0.003452  ( 0.048369 -0.032616  0.006987)
 47:    636.32   0.003486   17.62  0.001710  ( 0.041215 -0.002268 -0.002439)
 48:    659.99   0.000095    0.48  0.000045  (-0.006582 -0.001189 -0.000135)
 49:    701.82   0.003321   16.78  0.001477  ( 0.038323  0.001349 -0.002455)
 50:    710.75   0.021072  106.49  0.009252  ( 0.032267 -0.088498  0.019466)
 51:    730.81   0.005691   28.76  0.002430  ( 0.006665 -0.047320  0.012096)
 52:    743.87   0.004523   22.86  0.001898  (-0.022907 -0.001009 -0.037037)
 53:    765.79   0.006172   31.19  0.002515  ( 0.029485 -0.039968  0.006934)
 54:    769.47   0.011503   58.13  0.004665  (-0.064395  0.003150 -0.022546)
 55:    773.44   0.010272   51.91  0.004144  ( 0.031405 -0.037408  0.041938)
 56:    777.80   0.003669   18.54  0.001472  ( 0.024503 -0.029468 -0.001770)
 57:    782.36   0.008800   44.47  0.003510  ( 0.041615 -0.037023 -0.020192)
 58:    810.18   0.003954   19.98  0.001523  ( 0.005507  0.013257  0.036290)
 59:    834.82   0.000321    1.62  0.000120  ( 0.002367  0.009666 -0.004566)
 60:    873.08   0.002206   11.15  0.000788  (-0.017468  0.021835  0.002550)
 61:    881.84   0.001482    7.49  0.000525  (-0.007137 -0.017526 -0.012902)
 62:    893.31   0.000009    0.05  0.000003  (-0.000955  0.000452 -0.001468)
 63:    963.92   0.001188    6.00  0.000385  ( 0.011912 -0.002393  0.015396)
 64:    970.83   0.001361    6.88  0.000437  (-0.002148  0.015210  0.014197)
 65:    978.52   0.000208    1.05  0.000066  (-0.001216 -0.008006 -0.000915)
 66:    995.73   0.000089    0.45  0.000028  (-0.002861  0.004412  0.000494)
 67:   1014.04   0.066243  334.76  0.020386  (-0.075887  0.105402 -0.059306)
 68:   1015.14   0.004887   24.70  0.001502  (-0.018551  0.030417 -0.015262)
 69:   1031.29   0.021818  110.26  0.006602  ( 0.063694 -0.025330  0.043629)
 70:   1040.33   0.000017    0.09  0.000005  (-0.001148  0.000826  0.001766)
 71:   1052.02   0.025990  131.34  0.007710  (-0.013194  0.044206 -0.074708)
 72:   1060.45   0.000148    0.75  0.000044  ( 0.005604  0.000005 -0.003488)
 73:   1071.63   0.012880   65.09  0.003751  ( 0.029779  0.051608 -0.014165)
 74:   1083.67   0.009661   48.82  0.002782  ( 0.024154  0.009765 -0.045862)
 75:   1094.70   0.004699   23.75  0.001339  (-0.023406  0.026585 -0.009214)
 76:   1100.56   0.094448  477.30  0.026781  ( 0.010819 -0.118664 -0.112171)
 77:   1102.14   0.032724  165.38  0.009266  (-0.046552 -0.064693  0.053975)
 78:   1112.52   0.000371    1.87  0.000104  ( 0.004538  0.001400  0.009025)
 79:   1133.78   0.034854  176.14  0.009593  (-0.075749 -0.047183  0.040362)
 80:   1141.20   0.011048   55.83  0.003021  ( 0.041430 -0.010346  0.034606)
 81:   1168.63   0.000817    4.13  0.000218  ( 0.003114  0.006571  0.012858)
 82:   1170.59   0.000221    1.12  0.000059  (-0.007184  0.001306 -0.002362)
 83:   1171.45   0.000471    2.38  0.000126  (-0.010817  0.000987  0.002750)
 84:   1174.93   0.002524   12.76  0.000670  (-0.012467 -0.017927  0.013918)
 85:   1191.20   0.011126   56.23  0.002915  (-0.011288 -0.050679  0.014793)
 86:   1196.07   0.008401   42.46  0.002192  (-0.001712 -0.046757  0.001678)
 87:   1205.67   0.010680   53.97  0.002764  ( 0.050057 -0.007320 -0.014319)
 88:   1212.67   0.002216   11.20  0.000570  ( 0.017535  0.012803 -0.009939)
 89:   1220.83   0.007978   40.32  0.002039  ( 0.000969 -0.045147  0.000387)
 90:   1238.90   0.007399   37.39  0.001864  ( 0.041193 -0.012507 -0.003244)
 91:   1246.22   0.039890  201.59  0.009989  (-0.054284  0.079217 -0.027691)
 92:   1283.43   0.027834  140.66  0.006768  ( 0.074549 -0.027293 -0.021571)
 93:   1292.85   0.093590  472.96  0.022590  ( 0.031058 -0.125805  0.076150)
 94:   1304.43   0.069419  350.82  0.016607  ( 0.059893  0.017771 -0.112714)
 95:   1321.33   0.012960   65.49  0.003061  ( 0.040143 -0.018691 -0.033165)
 96:   1336.92   0.044485  224.81  0.010384  ( 0.097585  0.023225 -0.017929)
 97:   1340.78   0.000988    4.99  0.000230  ( 0.002199  0.009518  0.011598)
 98:   1380.02   0.020577  103.99  0.004653  ( 0.043718  0.043355 -0.029360)
 99:   1388.39   0.002609   13.19  0.000587  (-0.000463  0.004760 -0.023741)
100:   1421.35   0.011829   59.78  0.002597  ( 0.036729  0.033363  0.011622)
101:   1441.14   0.077465  391.48  0.016774  (-0.105263  0.052717 -0.053991)
102:   1466.01   0.003982   20.12  0.000848  (-0.026928  0.001261  0.010997)
103:   1466.33   0.005302   26.79  0.001128  ( 0.006319 -0.010809 -0.031171)
104:   1473.00   0.006320   31.94  0.001339  (-0.006581  0.028914 -0.021439)
105:   1473.08   0.002813   14.21  0.000596  ( 0.019478 -0.014198  0.003858)
106:   1479.82   0.016790   84.85  0.003541  (-0.002666 -0.058932 -0.007788)
107:   1482.23   0.005217   26.36  0.001098  ( 0.004809 -0.010498 -0.031065)
108:   1493.63   0.016708   84.43  0.003491  ( 0.010108  0.002011  0.058177)
109:   1498.09   0.011813   59.70  0.002461  (-0.024294  0.000041  0.043249)
110:   1529.23   0.000460    2.32  0.000094  ( 0.009078  0.003365 -0.000305)
111:   1538.24   0.038496  194.54  0.007810  (-0.038265  0.008512  0.079202)
112:   1636.14   0.159572  806.41  0.030435  ( 0.112902  0.113834 -0.068778)
113:   1648.67   0.001778    8.99  0.000337  (-0.001262 -0.001608 -0.018231)
114:   1650.70   0.002084   10.53  0.000394  ( 0.010510  0.016785  0.001357)
115:   1663.82   0.012759   64.48  0.002393  ( 0.011159 -0.019299 -0.043543)
116:   1665.82   0.010996   55.57  0.002060  ( 0.043247  0.010353 -0.009074)
117:   1785.15   0.090331  456.50  0.015791  ( 0.049819 -0.003677  0.115305)
118:   3038.39   0.012284   62.08  0.001262  (-0.021858 -0.019509  0.020081)
119:   3073.12   0.005498   27.79  0.000558  (-0.000952  0.022931  0.005621)
120:   3110.49   0.007732   39.08  0.000776  ( 0.019897 -0.015284  0.012093)
121:   3125.72   0.000782    3.95  0.000078  ( 0.000656  0.008424 -0.002584)
122:   3157.32   0.003603   18.21  0.000356  (-0.017225 -0.003406  0.006915)
123:   3165.99   0.003601   18.20  0.000355  ( 0.002386 -0.009654 -0.016002)
124:   3184.65   0.000497    2.51  0.000049  ( 0.004340  0.005277 -0.001432)
125:   3193.15   0.001928    9.75  0.000188  (-0.005296  0.006579 -0.010823)
126:   3196.22   0.001308    6.61  0.000128  ( 0.005108  0.009817  0.002289)
127:   3199.73   0.000415    2.10  0.000040  ( 0.005229  0.001510  0.003298)
128:   3202.24   0.001173    5.93  0.000114  ( 0.010068  0.003594 -0.000292)
129:   3212.62   0.000045    0.23  0.000004  (-0.001126  0.000316  0.001742)
130:   3214.70   0.002729   13.79  0.000265  (-0.003840  0.006269  0.014520)
131:   3229.85   0.000188    0.95  0.000018  ( 0.000732  0.000795  0.004127)
132:   3232.32   0.000456    2.31  0.000044  (-0.003782 -0.004695  0.002777)
133:   3234.11   0.000325    1.64  0.000031  (-0.005437 -0.000973  0.000908)
134:   3277.34   0.000321    1.62  0.000031  (-0.003582 -0.000082  0.004211)

* The epsilon (eps) is given for a Dirac delta lineshape.
** The dipole moment derivative (T) already includes vibrational overlap.

The first frequency considered to be a vibration is 7
The total number of vibrations considered is 128


--------------------------
THERMOCHEMISTRY AT 298.15K
--------------------------

Temperature         ... 298.15 K
Pressure            ... 1.00 atm
Total Mass          ... 398.34 AMU

Throughout the following assumptions are being made:
  (1) The electronic state is orbitally nondegenerate
  (2) There are no thermally accessible electronically excited states
  (3) Hindered rotations indicated by low frequency modes are not
      treated as such but are treated as vibrations and this may
      cause some error
  (4) All equations used are the standard statistical mechanics
      equations for an ideal gas
  (5) All vibrations are strictly harmonic

freq.      21.12  E(vib)   ...       0.56 
freq.      33.08  E(vib)   ...       0.55 
freq.      35.92  E(vib)   ...       0.54 
freq.      43.94  E(vib)   ...       0.53 
freq.      53.14  E(vib)   ...       0.52 
freq.      54.69  E(vib)   ...       0.52 
freq.      61.68  E(vib)   ...       0.51 
freq.      71.28  E(vib)   ...       0.50 
freq.      91.07  E(vib)   ...       0.47 
freq.     101.30  E(vib)   ...       0.46 
freq.     108.59  E(vib)   ...       0.45 
freq.     129.80  E(vib)   ...       0.43 
freq.     147.17  E(vib)   ...       0.41 
freq.     153.04  E(vib)   ...       0.40 
freq.     162.25  E(vib)   ...       0.39 
freq.     165.20  E(vib)   ...       0.39 
freq.     181.06  E(vib)   ...       0.37 
freq.     191.43  E(vib)   ...       0.36 
freq.     211.62  E(vib)   ...       0.34 
freq.     229.03  E(vib)   ...       0.32 
freq.     237.26  E(vib)   ...       0.32 
freq.     249.82  E(vib)   ...       0.31 
freq.     252.06  E(vib)   ...       0.30 
freq.     270.17  E(vib)   ...       0.29 
freq.     306.21  E(vib)   ...       0.26 
freq.     313.74  E(vib)   ...       0.25 
freq.     346.59  E(vib)   ...       0.23 
freq.     370.80  E(vib)   ...       0.21 
freq.     394.22  E(vib)   ...       0.20 
freq.     438.36  E(vib)   ...       0.17 
freq.     442.36  E(vib)   ...       0.17 
freq.     462.88  E(vib)   ...       0.16 
freq.     487.89  E(vib)   ...       0.15 
freq.     500.73  E(vib)   ...       0.14 
freq.     540.33  E(vib)   ...       0.12 
freq.     563.03  E(vib)   ...       0.11 
freq.     573.53  E(vib)   ...       0.11 
freq.     597.83  E(vib)   ...       0.10 
freq.     615.92  E(vib)   ...       0.10 
freq.     631.02  E(vib)   ...       0.09 
freq.     636.32  E(vib)   ...       0.09 
freq.     659.99  E(vib)   ...       0.08 
freq.     701.82  E(vib)   ...       0.07 
freq.     710.75  E(vib)   ...       0.07 
freq.     730.81  E(vib)   ...       0.06 
freq.     743.87  E(vib)   ...       0.06 
freq.     765.79  E(vib)   ...       0.06 
freq.     769.47  E(vib)   ...       0.06 
freq.     773.44  E(vib)   ...       0.05 
freq.     777.80  E(vib)   ...       0.05 
freq.     782.36  E(vib)   ...       0.05 
freq.     810.18  E(vib)   ...       0.05 
freq.     834.82  E(vib)   ...       0.04 
freq.     873.08  E(vib)   ...       0.04 
freq.     881.84  E(vib)   ...       0.04 
freq.     893.31  E(vib)   ...       0.03 
freq.     963.92  E(vib)   ...       0.03 
freq.     970.83  E(vib)   ...       0.03 
freq.     978.52  E(vib)   ...       0.03 
freq.     995.73  E(vib)   ...       0.02 
freq.    1014.04  E(vib)   ...       0.02 
freq.    1015.14  E(vib)   ...       0.02 
freq.    1031.29  E(vib)   ...       0.02 
freq.    1040.33  E(vib)   ...       0.02 
freq.    1052.02  E(vib)   ...       0.02 
freq.    1060.45  E(vib)   ...       0.02 
freq.    1071.63  E(vib)   ...       0.02 
freq.    1083.67  E(vib)   ...       0.02 
freq.    1094.70  E(vib)   ...       0.02 
freq.    1100.56  E(vib)   ...       0.02 
freq.    1102.14  E(vib)   ...       0.02 
freq.    1112.52  E(vib)   ...       0.01 
freq.    1133.78  E(vib)   ...       0.01 
freq.    1141.20  E(vib)   ...       0.01 
freq.    1168.63  E(vib)   ...       0.01 
freq.    1170.59  E(vib)   ...       0.01 
freq.    1171.45  E(vib)   ...       0.01 
freq.    1174.93  E(vib)   ...       0.01 
freq.    1191.20  E(vib)   ...       0.01 
freq.    1196.07  E(vib)   ...       0.01 
freq.    1205.67  E(vib)   ...       0.01 
freq.    1212.67  E(vib)   ...       0.01 
freq.    1220.83  E(vib)   ...       0.01 
freq.    1238.90  E(vib)   ...       0.01 
freq.    1246.22  E(vib)   ...       0.01 
freq.    1283.43  E(vib)   ...       0.01 
freq.    1292.85  E(vib)   ...       0.01 
freq.    1304.43  E(vib)   ...       0.01 
freq.    1321.33  E(vib)   ...       0.01 
freq.    1336.92  E(vib)   ...       0.01 
freq.    1340.78  E(vib)   ...       0.01 
freq.    1380.02  E(vib)   ...       0.01 
freq.    1388.39  E(vib)   ...       0.00 
freq.    1421.35  E(vib)   ...       0.00 
freq.    1441.14  E(vib)   ...       0.00 
freq.    1466.01  E(vib)   ...       0.00 
freq.    1466.33  E(vib)   ...       0.00 
freq.    1473.00  E(vib)   ...       0.00 
freq.    1473.08  E(vib)   ...       0.00 
freq.    1479.82  E(vib)   ...       0.00 
freq.    1482.23  E(vib)   ...       0.00 
freq.    1493.63  E(vib)   ...       0.00 
freq.    1498.09  E(vib)   ...       0.00 
freq.    1529.23  E(vib)   ...       0.00 
freq.    1538.24  E(vib)   ...       0.00 
freq.    1636.14  E(vib)   ...       0.00 
freq.    1648.67  E(vib)   ...       0.00 
freq.    1650.70  E(vib)   ...       0.00 
freq.    1663.82  E(vib)   ...       0.00 
freq.    1665.82  E(vib)   ...       0.00 
freq.    1785.15  E(vib)   ...       0.00 
freq.    3038.39  E(vib)   ...       0.00 
freq.    3073.12  E(vib)   ...       0.00 
freq.    3110.49  E(vib)   ...       0.00 
freq.    3125.72  E(vib)   ...       0.00 
freq.    3157.32  E(vib)   ...       0.00 
freq.    3165.99  E(vib)   ...       0.00 
freq.    3184.65  E(vib)   ...       0.00 
freq.    3193.15  E(vib)   ...       0.00 
freq.    3196.22  E(vib)   ...       0.00 
freq.    3199.73  E(vib)   ...       0.00 
freq.    3202.24  E(vib)   ...       0.00 
freq.    3212.62  E(vib)   ...       0.00 
freq.    3214.70  E(vib)   ...       0.00 
freq.    3229.85  E(vib)   ...       0.00 
freq.    3232.32  E(vib)   ...       0.00 
freq.    3234.11  E(vib)   ...       0.00 
freq.    3277.34  E(vib)   ...       0.00 

------------
INNER ENERGY
------------

The inner energy is: U= E(el) + E(ZPE) + E(vib) + E(rot) + E(trans)
    E(el)   - is the total energy from the electronic structure calculation
              = E(kin-el) + E(nuc-el) + E(el-el) + E(nuc-nuc)
    E(ZPE)  - the the zero temperature vibrational energy from the frequency calculation
    E(vib)  - the the finite temperature correction to E(ZPE) due to population
              of excited vibrational states
    E(rot)  - is the rotational thermal energy
    E(trans)- is the translational thermal energy

Summary of contributions to the inner energy U:
Electronic energy                ...  -1480.18931316 Eh
Zero point energy                ...      0.33683861 Eh     211.37 kcal/mol
Thermal vibrational correction   ...      0.02273142 Eh      14.26 kcal/mol
Thermal rotational correction    ...      0.00141627 Eh       0.89 kcal/mol
Thermal translational correction ...      0.00141627 Eh       0.89 kcal/mol
-----------------------------------------------------------------------
Total thermal energy                  -1479.82691059 Eh


Summary of corrections to the electronic energy:
(perhaps to be used in another calculation)
Total thermal correction                  0.02556396 Eh      16.04 kcal/mol
Non-thermal (ZPE) correction              0.33683861 Eh     211.37 kcal/mol
-----------------------------------------------------------------------
Total correction                          0.36240257 Eh     227.41 kcal/mol


--------
ENTHALPY
--------

The enthalpy is H = U + kB*T
                kB is Boltzmann's constant
Total free energy                 ...  -1479.82691059 Eh 
Thermal Enthalpy correction       ...      0.00094421 Eh       0.59 kcal/mol
-----------------------------------------------------------------------
Total Enthalpy                    ...  -1479.82596638 Eh


Note: Only C1 symmetry has been detected, increase convergence thresholds 
      if your molecule has a higher symmetry. Symmetry factor of 1.0 is   
      used for the rotational entropy correction. 
 

Note: Rotational entropy computed according to Herzberg 
Infrared and Raman Spectra, Chapter V,1, Van Nostrand Reinhold, 1945 
Point Group:  C1, Symmetry Number:   1  
Rotational constants in cm-1:     0.007412     0.006098     0.004394 

Vibrational entropy computed according to the QRRHO of S. Grimme
Chem.Eur.J. 2012 18 9955


-------
ENTROPY
-------

The entropy contributions are T*S = T*(S(el)+S(vib)+S(rot)+S(trans))
     S(el)   - electronic entropy
     S(vib)  - vibrational entropy
     S(rot)  - rotational entropy
     S(trans)- translational entropy
The entropies will be listed as multiplied by the temperature to get
units of energy

Electronic entropy                ...      0.00000000 Eh      0.00 kcal/mol
Vibrational entropy               ...      0.04112758 Eh     25.81 kcal/mol
Rotational entropy                ...      0.01679614 Eh     10.54 kcal/mol
Translational entropy             ...      0.02082871 Eh     13.07 kcal/mol
-----------------------------------------------------------------------
Final entropy term                ...      0.07875243 Eh     49.42 kcal/mol

In case the symmetry of your molecule has not been determined correctly
or in case you have a reason to use a different symmetry number we print 
out the resulting rotational entropy values for sn=1,12 :
 --------------------------------------------------------
|  sn= 1 | S(rot)=       0.01679614 Eh     10.54 kcal/mol|
|  sn= 2 | S(rot)=       0.01614168 Eh     10.13 kcal/mol|
|  sn= 3 | S(rot)=       0.01575885 Eh      9.89 kcal/mol|
|  sn= 4 | S(rot)=       0.01548723 Eh      9.72 kcal/mol|
|  sn= 5 | S(rot)=       0.01527654 Eh      9.59 kcal/mol|
|  sn= 6 | S(rot)=       0.01510440 Eh      9.48 kcal/mol|
|  sn= 7 | S(rot)=       0.01495885 Eh      9.39 kcal/mol|
|  sn= 8 | S(rot)=       0.01483277 Eh      9.31 kcal/mol|
|  sn= 9 | S(rot)=       0.01472156 Eh      9.24 kcal/mol|
|  sn=10 | S(rot)=       0.01462208 Eh      9.18 kcal/mol|
|  sn=11 | S(rot)=       0.01453209 Eh      9.12 kcal/mol|
|  sn=12 | S(rot)=       0.01444994 Eh      9.07 kcal/mol|
 --------------------------------------------------------


-------------------
GIBBS FREE ENERGY
-------------------

The Gibbs free energy is G = H - T*S

Total enthalpy                    ...  -1479.82596638 Eh 
Total entropy correction          ...     -0.07875243 Eh    -49.42 kcal/mol
-----------------------------------------------------------------------
Final Gibbs free energy         ...  -1479.90471881 Eh

For completeness - the Gibbs free energy minus the electronic energy
G-E(el)                           ...      0.28459435 Eh    178.59 kcal/mol


Timings for individual modules:

Sum of individual times         ...    11576.494 sec (= 192.942 min)
GTO integral calculation        ...      123.315 sec (=   2.055 min)   1.1 %
SCF iterations                  ...     5737.503 sec (=  95.625 min)  49.6 %
SCF Gradient evaluation         ...     1756.665 sec (=  29.278 min)  15.2 %
Geometry relaxation             ...        9.002 sec (=   0.150 min)   0.1 %
Analytical frequency calculation...     3950.009 sec (=  65.833 min)  34.1 %
                             ****ORCA TERMINATED NORMALLY****
TOTAL RUN TIME: 0 days 3 hours 15 minutes 1 seconds 517 msec
